
                                 *****************
                                 * O   R   C   A *
                                 *****************

                                            #,                                       
                                            ###                                      
                                            ####                                     
                                            #####                                    
                                            ######                                   
                                           ########,                                 
                                     ,,################,,,,,                         
                               ,,#################################,,                 
                          ,,##########################################,,             
                       ,#########################################, ''#####,          
                    ,#############################################,,   '####,        
                  ,##################################################,,,,####,       
                ,###########''''           ''''###############################       
              ,#####''   ,,,,##########,,,,          '''####'''          '####       
            ,##' ,,,,###########################,,,                        '##       
           ' ,,###''''                  '''############,,,                           
         ,,##''                                '''############,,,,        ,,,,,,###''
      ,#''                                            '''#######################'''  
     '                                                          ''''####''''         
             ,#######,   #######,   ,#######,      ##                                
            ,#'     '#,  ##    ##  ,#'     '#,    #''#        ######   ,####,        
            ##       ##  ##   ,#'  ##            #'  '#       #        #'  '#        
            ##       ##  #######   ##           ,######,      #####,   #    #        
            '#,     ,#'  ##    ##  '#,     ,#' ,#      #,         ##   #,  ,#        
             '#######'   ##     ##  '#######'  #'      '#     #####' # '####'        



                  #######################################################
                  #                        -***-                        #
                  #          Department of theory and spectroscopy      #
                  #    Directorship and core code : Frank Neese         #
                  #        Max Planck Institute fuer Kohlenforschung    #
                  #                Kaiser Wilhelm Platz 1               #
                  #                 D-45470 Muelheim/Ruhr               #
                  #                      Germany                        #
                  #                                                     #
                  #                  All rights reserved                #
                  #                        -***-                        #
                  #######################################################


                         Program Version 5.0.4 -  RELEASE  -


 With contributions from (in alphabetic order):
   Daniel Aravena         : Magnetic Suceptibility
   Michael Atanasov       : Ab Initio Ligand Field Theory (pilot matlab implementation)
   Alexander A. Auer      : GIAO ZORA, VPT2 properties, NMR spectrum
   Ute Becker             : Parallelization
   Giovanni Bistoni       : ED, misc. LED, open-shell LED, HFLD
   Martin Brehm           : Molecular dynamics
   Dmytro Bykov           : SCF Hessian
   Vijay G. Chilkuri      : MRCI spin determinant printing, contributions to CSF-ICE
   Dipayan Datta          : RHF DLPNO-CCSD density
   Achintya Kumar Dutta   : EOM-CC, STEOM-CC
   Dmitry Ganyushin       : Spin-Orbit,Spin-Spin,Magnetic field MRCI
   Miquel Garcia          : C-PCM and meta-GGA Hessian, CC/C-PCM, Gaussian charge scheme
   Yang Guo               : DLPNO-NEVPT2, F12-NEVPT2, CIM, IAO-localization
   Andreas Hansen         : Spin unrestricted coupled pair/coupled cluster methods
   Benjamin Helmich-Paris : MC-RPA, TRAH-SCF, COSX integrals
   Lee Huntington         : MR-EOM, pCC
   Robert Izsak           : Overlap fitted RIJCOSX, COSX-SCS-MP3, EOM
   Marcus Kettner         : VPT2
   Christian Kollmar      : KDIIS, OOCD, Brueckner-CCSD(T), CCSD density, CASPT2, CASPT2-K
   Simone Kossmann        : Meta GGA functionals, TD-DFT gradient, OOMP2, MP2 Hessian
   Martin Krupicka        : Initial AUTO-CI
   Lucas Lang             : DCDCAS
   Marvin Lechner         : AUTO-CI (C++ implementation), FIC-MRCC
   Dagmar Lenk            : GEPOL surface, SMD
   Dimitrios Liakos       : Extrapolation schemes; Compound Job, initial MDCI parallelization
   Dimitrios Manganas     : Further ROCIS development; embedding schemes
   Dimitrios Pantazis     : SARC Basis sets
   Anastasios Papadopoulos: AUTO-CI, single reference methods and gradients
   Taras Petrenko         : DFT Hessian,TD-DFT gradient, ASA, ECA, R-Raman, ABS, FL, XAS/XES, NRVS
   Peter Pinski           : DLPNO-MP2, DLPNO-MP2 Gradient
   Christoph Reimann      : Effective Core Potentials
   Marius Retegan         : Local ZFS, SOC
   Christoph Riplinger    : Optimizer, TS searches, QM/MM, DLPNO-CCSD(T), (RO)-DLPNO pert. Triples
   Tobias Risthaus        : Range-separated hybrids, TD-DFT gradient, RPA, STAB
   Michael Roemelt        : Original ROCIS implementation
   Masaaki Saitow         : Open-shell DLPNO-CCSD energy and density
   Barbara Sandhoefer     : DKH picture change effects
   Avijit Sen             : IP-ROCIS
   Kantharuban Sivalingam : CASSCF convergence, NEVPT2, FIC-MRCI
   Bernardo de Souza      : ESD, SOC TD-DFT
   Georgi Stoychev        : AutoAux, RI-MP2 NMR, DLPNO-MP2 response
   Willem Van den Heuvel  : Paramagnetic NMR
   Boris Wezisla          : Elementary symmetry handling
   Frank Wennmohs         : Technical directorship


 We gratefully acknowledge several colleagues who have allowed us to
 interface, adapt or use parts of their codes:
   Stefan Grimme, W. Hujo, H. Kruse, P. Pracht,  : VdW corrections, initial TS optimization,
                  C. Bannwarth, S. Ehlert          DFT functionals, gCP, sTDA/sTD-DF
   Ed Valeev, F. Pavosevic, A. Kumar             : LibInt (2-el integral package), F12 methods
   Garnet Chan, S. Sharma, J. Yang, R. Olivares  : DMRG
   Ulf Ekstrom                                   : XCFun DFT Library
   Mihaly Kallay                                 : mrcc  (arbitrary order and MRCC methods)
   Jiri Pittner, Ondrej Demel                    : Mk-CCSD
   Frank Weinhold                                : gennbo (NPA and NBO analysis)
   Christopher J. Cramer and Donald G. Truhlar   : smd solvation model
   Lars Goerigk                                  : TD-DFT with DH, B97 family of functionals
   V. Asgeirsson, H. Jonsson                     : NEB implementation
   FAccTs GmbH                                   : IRC, NEB, NEB-TS, DLPNO-Multilevel, CI-OPT
                                                   MM, QMMM, 2- and 3-layer-ONIOM, Crystal-QMMM,
                                                   LR-CPCM, SF, NACMEs, symmetry and pop. for TD-DFT,
                                                   nearIR, NL-DFT gradient (VV10), updates on ESD,
                                                   ML-optimized integration grids
   S Lehtola, MJT Oliveira, MAL Marques          : LibXC Library
   Liviu Ungur et al                             : ANISO software


 Your calculation uses the libint2 library for the computation of 2-el integrals
 For citations please refer to: http://libint.valeyev.net

 Your ORCA version has been built with support for libXC version: 5.1.0
 For citations please refer to: https://tddft.org/programs/libxc/

 This ORCA versions uses:
   CBLAS   interface :  Fast vector & matrix operations
   LAPACKE interface :  Fast linear algebra routines
   SCALAPACK package :  Parallel linear algebra routines
   Shared memory     :  Shared parallel matrices
   BLAS/LAPACK       :  OpenBLAS 0.3.15  USE64BITINT DYNAMIC_ARCH NO_AFFINITY Zen SINGLE_THREADED
        Core in use  :  Zen
   Copyright (c) 2011-2014, The OpenBLAS Project




***************************************
The coordinates will be read from file: inp.xyz
***************************************


Your calculation utilizes the geometrical counterpoise correction gCP
Please cite in your paper:
H.Kruse, S. Grimme J.Chem.Phys., 136, (2012), 154101 
   

Your calculation utilizes the atom-pairwise dispersion correction
based on tight binding partial charges (D4)
Cite in your paper:
E.Caldeweyher, C.Bannwarth, S.Grimme, J.Chem.Phys., (2017), 147, 034112.
E.Caldeweyher, S.Ehlert, A.Hansen, H.Neugebauer, S.Grimme, J.Chem.Phys., (2018), in progress.
   

================================================================================

----- Orbital basis set information -----
Your calculation utilizes the basis: def2-mTZVPP
   Stefan Grimme, Andreas Hansen, Sebastian Ehlert, and Jan-Michael Mewes 
   J. Chem. Phys. 154, 000000 (2021). DOI: 10.1063/5.0040021

----- AuxJ basis set information -----
Your calculation utilizes the basis: def2-mTZVPP/J
   Stefan Grimme, Andreas Hansen, Sebastian Ehlert, and Jan-Michael Mewes 
   J. Chem. Phys. 154, 000000 (2021). DOI: 10.1063/5.0040021

================================================================================
                                        WARNINGS
                       Please study these warnings very carefully!
================================================================================

Using LibXC functional ID 497 : Re-regularized SCAN exchange by Furness et al
[ 1]  J. W. Furness, A. D. Kaplan, J. Ning, J. P. Perdew, and J. Sun, J. Phys. Chem. Lett. 11, 8208 (2020)
[ 2]  J. W. Furness, A. D. Kaplan, J. Ning, J. P. Perdew, and J. Sun, J. Phys. Chem. Lett. 11, 9248 (2020)
Using LibXC functional ID 498 : Re-regularized SCAN correlation by Furness et al
[ 1]  J. W. Furness, A. D. Kaplan, J. Ning, J. P. Perdew, and J. Sun, J. Phys. Chem. Lett. 11, 8208 (2020)
[ 2]  J. W. Furness, A. D. Kaplan, J. Ning, J. P. Perdew, and J. Sun, J. Phys. Chem. Lett. 11, 9248 (2020)
Using LibXC functional ID 497 : Re-regularized SCAN exchange by Furness et al
[ 1]  J. W. Furness, A. D. Kaplan, J. Ning, J. P. Perdew, and J. Sun, J. Phys. Chem. Lett. 11, 8208 (2020)
[ 2]  J. W. Furness, A. D. Kaplan, J. Ning, J. P. Perdew, and J. Sun, J. Phys. Chem. Lett. 11, 9248 (2020)
Using LibXC functional ID 498 : Re-regularized SCAN correlation by Furness et al
[ 1]  J. W. Furness, A. D. Kaplan, J. Ning, J. P. Perdew, and J. Sun, J. Phys. Chem. Lett. 11, 8208 (2020)
[ 2]  J. W. Furness, A. D. Kaplan, J. Ning, J. P. Perdew, and J. Sun, J. Phys. Chem. Lett. 11, 9248 (2020)

WARNING: Geometry Optimization
  ===> : Switching off AutoStart
         For restart on a previous wavefunction, please use MOREAD

INFO   : the flag for use of the SHARK integral package has been found!

================================================================================
                                       INPUT FILE
================================================================================
NAME = inp
|  1> !r2scan-3c Opt D4 Freq TightOpt
|  2> %pal
|  3>  nprocs 32
|  4> end
|  5> * xyzfile 0 1 inp.xyz
|  6> 
|  7> 
|  8>                          ****END OF INPUT****
================================================================================

                       *****************************
                       * Geometry Optimization Run *
                       *****************************

Geometry optimization settings:
Update method            Update   .... BFGS
Choice of coordinates    CoordSys .... Z-matrix Internals
Initial Hessian          InHess   .... Almoef's Model

Convergence Tolerances:
Energy Change            TolE     ....  1.0000e-06 Eh
Max. Gradient            TolMAXG  ....  1.0000e-04 Eh/bohr
RMS Gradient             TolRMSG  ....  3.0000e-05 Eh/bohr
Max. Displacement        TolMAXD  ....  1.0000e-03 bohr
RMS Displacement         TolRMSD  ....  6.0000e-04 bohr
Strict Convergence                ....  False
------------------------------------------------------------------------------
                        ORCA OPTIMIZATION COORDINATE SETUP
------------------------------------------------------------------------------

The optimization will be done in new redundant internal coordinates
Making redundant internal coordinates   ...  (new redundants) done
Evaluating the initial hessian          ...  (Almloef) done
Evaluating the coordinates              ...  done
Calculating the B-matrix                .... done
Calculating the G-matrix                .... done
Diagonalizing the G-matrix              .... done
The first mode is                       ....   73
The number of degrees of freedom        ....   36

    -----------------------------------------------------------------
                    Redundant Internal Coordinates


    -----------------------------------------------------------------
         Definition                    Initial Value    Approx d2E/dq
    -----------------------------------------------------------------
      1. B(C   1,C   0)                  1.4968         0.421972   
      2. B(H   2,C   0)                  1.0947         0.353908   
      3. B(H   3,C   0)                  1.0959         0.352439   
      4. B(H   4,C   0)                  1.0892         0.361201   
      5. B(O   5,H   3)                  2.5288         0.001633   
      6. B(C   6,O   5)                  1.4249         0.492263   
      7. B(H   7,H   3)                  2.6543         0.000220   
      8. B(H   7,C   6)                  1.1016         0.345134   
      9. B(H   8,C   6)                  1.0930         0.356093   
     10. B(H   9,C   6)                  1.0998         0.347365   
     11. B(O  10,C   1)                  1.2053         1.102961   
     12. B(O  11,C   1)                  1.3723         0.597108   
     13. B(H  12,O  11)                  0.9707         0.499918   
     14. B(H  13,H   3)                  2.4284         0.000505   
     15. B(H  13,O   5)                  0.9652         0.510154   
     16. B(H  13,H  12)                  2.8364         0.000113   
     17. B(H  13,O  11)                  2.2098         0.005273   
     18. A(H   2,C   0,H   3)          107.0875         0.289072   
     19. A(H   3,C   0,H   4)          110.7315         0.289998   
     20. A(H   2,C   0,H   4)          110.0890         0.290188   
     21. A(C   1,C   0,H   2)          109.6058         0.329950   
     22. A(C   1,C   0,H   4)          109.4153         0.331065   
     23. A(C   1,C   0,H   3)          109.8808         0.329723   
     24. A(C   0,C   1,O  11)          111.4367         0.400023   
     25. A(C   0,C   1,O  10)          126.8353         0.446366   
     26. A(O  10,C   1,O  11)          121.7279         0.472398   
     27. A(C   0,H   3,H  13)          115.8491         0.125305   
     28. A(H   7,H   3,H  13)           54.8290         0.094465   
     29. A(O   5,H   3,H  13)           22.3363         0.099632   
     30. A(O   5,H   3,H   7)           47.8914         0.097811   
     31. A(C   0,H   3,H   7)          113.3808         0.119088   
     32. A(C   0,H   3,O   5)          137.2069         0.147536   
     33. A(H   3,O   5,H  13)           72.9769         0.151905   
     34. A(H   3,O   5,C   6)           97.2781         0.161397   
     35. A(C   6,O   5,H  13)          107.3221         0.354667   
     36. A(O   5,C   6,H   7)          112.3696         0.335046   
     37. A(H   8,C   6,H   9)          108.3244         0.288695   
     38. A(H   7,C   6,H   9)          108.5517         0.287287   
     39. A(O   5,C   6,H   9)          112.1930         0.335405   
     40. A(H   7,C   6,H   8)          108.2034         0.288404   
     41. A(O   5,C   6,H   8)          107.0441         0.336792   
     42. A(H   3,H   7,C   6)          100.6357         0.118946   
     43. A(H  12,O  11,H  13)          121.1595         0.170635   
     44. A(C   1,O  11,H  13)          109.0186         0.187602   
     45. A(C   1,O  11,H  12)          106.2484         0.365264   
     46. A(O  11,H  12,H  13)           41.8115         0.116663   
     47. A(H   3,H  13,O  11)           68.7609         0.102861   
     48. A(O   5,H  13,O  11)          145.2528         0.171011   
     49. A(H   3,H  13,O   5)           84.6868         0.128015   
     50. A(O  11,H  13,H  12)           17.0290         0.098873   
     51. A(H   3,H  13,H  12)           83.1973         0.093697   
     52. A(O   5,H  13,H  12)          145.6619         0.116791   
     53. D(O  10,C   1,C   0,H   4)      1.0490         0.013163   
     54. D(O  11,C   1,C   0,H   3)    -57.2736         0.013163   
     55. D(O  11,C   1,C   0,H   2)     60.1452         0.013163   
     56. D(O  11,C   1,C   0,H   4)   -179.0479         0.013163   
     57. D(O  10,C   1,C   0,H   3)    122.8232         0.013163   
     58. D(O  10,C   1,C   0,H   2)   -119.7580         0.013163   
     59. D(O   5,H   3,C   0,H   4)    146.5669         0.135557   
     60. D(O   5,H   3,C   0,C   1)     25.5813         0.135557   
     61. D(H  13,H   3,C   0,C   1)     33.8496         0.135557   
     62. D(H   7,H   3,C   0,H   2)   -145.9270         0.135557   
     63. D(H   7,H   3,C   0,H   4)     94.0352         0.135557   
     64. D(H  13,H   3,C   0,H   2)    -85.1269         0.135557   
     65. D(H   7,H   3,C   0,C   1)    -26.9504         0.135557   
     66. D(H  13,H   3,C   0,H   4)    154.8352         0.135557   
     67. D(O   5,H   3,C   0,H   2)    -93.3953         0.135557   
     68. D(H  13,O   5,H   3,H   7)     99.0210         0.001502   
     69. D(H  13,O   5,H   3,C   0)     19.9099         0.001502   
     70. D(C   6,O   5,H   3,H  13)   -105.9509         0.001502   
     71. D(C   6,O   5,H   3,H   7)     -6.9299         0.001502   
     72. D(C   6,O   5,H   3,C   0)    -86.0409         0.001502   
     73. D(H   9,C   6,O   5,H   3)    136.1352         0.020760   
     74. D(H   8,C   6,O   5,H   3)   -105.1653         0.020760   
     75. D(H   8,C   6,O   5,H  13)   -179.5412         0.020760   
     76. D(H   7,C   6,O   5,H   3)     13.4876         0.020760   
     77. D(H   9,C   6,O   5,H  13)     61.7592         0.020760   
     78. D(H   7,C   6,O   5,H  13)    -60.8883         0.020760   
     79. D(H   3,H   7,C   6,O   5)    -12.9598         0.109575   
     80. D(C   6,H   7,H   3,H  13)     36.3965         0.001501   
     81. D(C   6,H   7,H   3,O   5)      9.0630         0.001501   
     82. D(H   3,H   7,C   6,H   8)    105.0094         0.109575   
     83. D(C   6,H   7,H   3,C   0)    142.4442         0.001501   
     84. D(H   3,H   7,C   6,H   9)   -137.6382         0.109575   
     85. D(H  13,O  11,C   1,O  10)   -131.5483         0.028709   
     86. D(H  13,O  11,C   1,C   0)     48.5428         0.028709   
     87. D(H  12,O  11,C   1,O  10)      0.5593         0.028709   
     88. D(H  12,O  11,C   1,C   0)   -179.3496         0.028709   
     89. D(H  13,H  12,O  11,C   1)   -124.9514         0.312433   
     90. D(H   3,H  13,H  12,O  11)     31.0979         0.001500   
     91. D(O   5,H  13,H  12,O  11)    101.2240         0.001500   
     92. D(H   3,H  13,O  11,H  12)   -146.6166         0.001518   
     93. D(H   3,H  13,O  11,C   1)    -22.9559         0.001518   
     94. D(O   5,H  13,O  11,H  12)   -103.8914         0.001518   
     95. D(O   5,H  13,O  11,C   1)     19.7692         0.001518   
     96. D(H  12,H  13,O   5,H   3)    -69.6939         0.398477   
     97. D(H  12,H  13,O   5,C   6)     22.7873         0.398477   
     98. D(O  11,H  13,O   5,H   3)    -39.4293         0.398477   
     99. D(O  11,H  13,O   5,C   6)     53.0519         0.398477   
    100. D(H   3,H  13,O   5,C   6)     92.4812         0.398477   
    101. D(H  12,H  13,H   3,H   7)     84.1264         0.001503   
    102. D(H  12,H  13,H   3,O   5)    147.8072         0.001503   
    103. D(H  12,H  13,H   3,C   0)    -17.2965         0.001503   
    104. D(O  11,H  13,H   3,H   7)     93.4658         0.001503   
    105. D(O  11,H  13,H   3,O   5)    157.1467         0.001503   
    106. D(H  12,H  13,O  11,C   1)    123.6606         0.001518   
    107. D(O  11,H  13,H   3,C   0)     -7.9571         0.001503   
    108. D(O   5,H  13,H   3,H   7)    -63.6808         0.001503   
    109. D(O   5,H  13,H   3,C   0)   -165.1037         0.001503   
    -----------------------------------------------------------------

Number of atoms                         .... 14
Number of degrees of freedom            .... 109

         *************************************************************
         *                GEOMETRY OPTIMIZATION CYCLE   1            *
         *************************************************************
---------------------------------
CARTESIAN COORDINATES (ANGSTROEM)
---------------------------------
  C     -2.891328   -0.283393   -0.119695
  C     -2.098441    0.910651    0.311716
  H     -3.562713   -0.590139    0.688738
  H     -2.218836   -1.125867   -0.316893
  H     -3.467244   -0.033280   -1.009669
  O      0.075027   -1.883519    0.430609
  C      0.829825   -1.143436   -0.524844
  H      0.224408   -0.377591   -1.035114
  H      1.182880   -1.855463   -1.275257
  H      1.705313   -0.654028   -0.073665
  O     -2.089800    1.998344   -0.207500
  O     -1.338985    0.634351    1.420860
  H     -0.868845    1.454991    1.639428
  H     -0.244972   -1.257161    1.091556

----------------------------
CARTESIAN COORDINATES (A.U.)
----------------------------
  NO LB      ZA    FRAG     MASS         X           Y           Z
   0 C     6.0000    0    12.011   -5.463818   -0.535535   -0.226191
   1 C     6.0000    0    12.011   -3.965478    1.720881    0.589058
   2 H     1.0000    0     1.008   -6.732553   -1.115201    1.301526
   3 H     1.0000    0     1.008   -4.192992   -2.127580   -0.598842
   4 H     1.0000    0     1.008   -6.552142   -0.062890   -1.907998
   5 O     8.0000    0    15.999    0.141781   -3.559335    0.813734
   6 C     6.0000    0    12.011    1.568142   -2.160780   -0.991812
   7 H     1.0000    0     1.008    0.424070   -0.713544   -1.956082
   8 H     1.0000    0     1.008    2.235320   -3.506317   -2.409886
   9 H     1.0000    0     1.008    3.222575   -1.235934   -0.139207
  10 O     8.0000    0    15.999   -3.949150    3.776323   -0.392118
  11 O     8.0000    0    15.999   -2.530315    1.198749    2.685035
  12 H     1.0000    0     1.008   -1.641879    2.749534    3.098071
  13 H     1.0000    0     1.008   -0.462929   -2.375690    2.062743

--------------------------------
INTERNAL COORDINATES (ANGSTROEM)
--------------------------------
 C      0   0   0     0.000000000000     0.00000000     0.00000000
 C      1   0   0     1.496838841146     0.00000000     0.00000000
 H      1   2   0     1.094721597148   109.60577457     0.00000000
 H      1   2   3     1.095853572010   109.88083899   242.58120535
 H      1   2   3     1.089169200497   109.41526039   120.80694944
 O      4   1   2     2.528755916009   137.20693957    25.58127523
 C      6   4   1     1.424898251490    97.27805724   273.95906646
 H      7   6   4     1.101554772577   112.36964696    13.48759610
 H      7   6   4     1.093046032846   107.04413678   254.83471694
 H      7   6   4     1.099800812408   112.19295465   136.13515206
 O      2   1   3     1.205295116286   126.83532346   240.24202469
 O      2   1   3     1.372338722723   111.43672635    60.14518247
 H     12   2   1     0.970697990734   106.24838494   180.65040782
 H      6   4   1     0.965180931869    72.97687413    19.90994365

---------------------------
INTERNAL COORDINATES (A.U.)
---------------------------
 C      0   0   0     0.000000000000     0.00000000     0.00000000
 C      1   0   0     2.828615476382     0.00000000     0.00000000
 H      1   2   0     2.068724011499   109.60577457     0.00000000
 H      1   2   3     2.070863133979   109.88083899   242.58120535
 H      1   2   3     2.058231502440   109.41526039   120.80694944
 O      4   1   2     4.778656140790   137.20693957    25.58127523
 C      6   4   1     2.692667464020    97.27805724   273.95906646
 H      7   6   4     2.081636841684   112.36964696    13.48759610
 H      7   6   4     2.065557653847   107.04413678   254.83471694
 H      7   6   4     2.078322337314   112.19295465   136.13515206
 O      2   1   3     2.277677680332   126.83532346   240.24202469
 O      2   1   3     2.593344348922   111.43672635    60.14518247
 H     12   2   1     1.834353361235   106.24838494   180.65040782
 H      6   4   1     1.823927630915    72.97687413    19.90994365

---------------------
BASIS SET INFORMATION
---------------------
There are 3 groups of distinct atoms

 Group   1 Type C   : 11s6p1d contracted to 5s3p1d pattern {62111/411/1}
 Group   2 Type H   : 4s1p contracted to 2s1p pattern {31/1}
 Group   3 Type O   : 11s6p2d contracted to 5s3p2d pattern {62111/411/11}

Atom   0C    basis set group =>   1
Atom   1C    basis set group =>   1
Atom   2H    basis set group =>   2
Atom   3H    basis set group =>   2
Atom   4H    basis set group =>   2
Atom   5O    basis set group =>   3
Atom   6C    basis set group =>   1
Atom   7H    basis set group =>   2
Atom   8H    basis set group =>   2
Atom   9H    basis set group =>   2
Atom  10O    basis set group =>   3
Atom  11O    basis set group =>   3
Atom  12H    basis set group =>   2
Atom  13H    basis set group =>   2
---------------------------------
AUXILIARY/J BASIS SET INFORMATION
---------------------------------
There are 3 groups of distinct atoms

 Group   1 Type C   : 8s3p3d contracted to 6s3p3d pattern {311111/111/111}
 Group   2 Type H   : 5s2p1d contracted to 3s1p1d pattern {311/2/1}
 Group   3 Type O   : 8s3p3d contracted to 6s3p3d pattern {311111/111/111}

Atom   0C    basis set group =>   1
Atom   1C    basis set group =>   1
Atom   2H    basis set group =>   2
Atom   3H    basis set group =>   2
Atom   4H    basis set group =>   2
Atom   5O    basis set group =>   3
Atom   6C    basis set group =>   1
Atom   7H    basis set group =>   2
Atom   8H    basis set group =>   2
Atom   9H    basis set group =>   2
Atom  10O    basis set group =>   3
Atom  11O    basis set group =>   3
Atom  12H    basis set group =>   2
Atom  13H    basis set group =>   2


           ************************************************************
           *        Program running with 32 parallel MPI-processes    *
           *              working on a common directory               *
           ************************************************************
------------------------------------------------------------------------------
                           ORCA GTO INTEGRAL CALCULATION
                           -- RI-GTO INTEGRALS CHOSEN --
------------------------------------------------------------------------------
------------------------------------------------------------------------------
                   ___                                                        
                  /   \      - P O W E R E D   B Y -                         
                 /     \                                                     
                 |  |  |   _    _      __       _____    __    __             
                 |  |  |  | |  | |    /  \     |  _  \  |  |  /  |          
                  \  \/   | |  | |   /    \    | | | |  |  | /  /          
                 / \  \   | |__| |  /  /\  \   | |_| |  |  |/  /          
                |  |  |   |  __  | /  /__\  \  |    /   |      \           
                |  |  |   | |  | | |   __   |  |    \   |  |\   \          
                \     /   | |  | | |  |  |  |  | |\  \  |  | \   \       
                 \___/    |_|  |_| |__|  |__|  |_| \__\ |__|  \__/        
                                                                              
                      - O R C A' S   B I G   F R I E N D -                    
                                      &                                       
                       - I N T E G R A L  F E E D E R -                       
                                                                              
 v1 FN, 2020, v2 2021                                                         
------------------------------------------------------------------------------


Reading SHARK input file inp.SHARKINP.tmp ... ok
----------------------
SHARK INTEGRAL PACKAGE
----------------------

Number of atoms                             ...     14
Number of basis functions                   ...    169
Number of shells                            ...     81
Maximum angular momentum                    ...      2
Integral batch strategy                     ... SHARK/LIBINT Hybrid
RI-J (if used) integral strategy            ... SPLIT-RIJ (Revised 2003 algorithm where possible)
Printlevel                                  ...      1
Contraction scheme used                     ... SEGMENTED contraction
Coulomb Range Separation                    ... NOT USED
Exchange Range Separation                   ... NOT USED
Finite Nucleus Model                        ... NOT USED
Auxiliary Coulomb fitting basis             ... AVAILABLE
   # of basis functions in Aux-J            ...    268
   # of shells in Aux-J                     ...    112
   Maximum angular momentum in Aux-J        ...      2
Auxiliary J/K fitting basis                 ... NOT available
Auxiliary Correlation fitting basis         ... NOT available
Auxiliary 'external' fitting basis          ... NOT available
Integral threshold                          ...     2.500000e-11
Primitive cut-off                           ...     2.500000e-12
Primitive pair pre-selection threshold      ...     2.500000e-12

Calculating pre-screening integrals         ... done (  0.0 sec) Dimension = 81
Organizing shell pair data                  ... done (  0.0 sec)
Shell pair information
Total number of shell pairs                 ...      3321
Shell pairs after pre-screening             ...      3023
Total number of primitive shell pairs       ...     11632
Primitive shell pairs kept                  ...      7647
          la=0 lb=0:    962 shell pairs
          la=1 lb=0:   1086 shell pairs
          la=1 lb=1:    331 shell pairs
          la=2 lb=0:    378 shell pairs
          la=2 lb=1:    222 shell pairs
          la=2 lb=2:     44 shell pairs

Calculating one electron integrals          ... done (  0.0 sec)
Calculating RI/J V-Matrix + Cholesky decomp.... done (  0.0 sec)
Calculating Nuclear repulsion               ... done (  0.0 sec) ENN=    244.593792728053 Eh

SHARK setup successfully completed in   0.1 seconds

Maximum memory used throughout the entire GTOINT-calculation: 10.5 MB


           ************************************************************
           *        Program running with 32 parallel MPI-processes    *
           *              working on a common directory               *
           ************************************************************
-------------------------------------------------------------------------------
                                 ORCA SCF
-------------------------------------------------------------------------------

------------
SCF SETTINGS
------------
Hamiltonian:
 Density Functional     Method          .... DFT(GTOs)
  Functional kind                       .... Exchange
  Functional name                       .... Re-regularized SCAN exchange by Furness et al
  Functional family                     .... MGGA
  Functional refs                              
    [ 0] J. W. Furness, A. D. Kaplan, J. Ning, J. P. Perdew, and J. Sun, J. Phys. Chem. Lett. 11, 8208 (2020)
    [ 1] J. W. Furness, A. D. Kaplan, J. Ning, J. P. Perdew, and J. Sun, J. Phys. Chem. Lett. 11, 9248 (2020)
  Functional external parameters         .... 8
 Parameter  0 :         c1 parameter
 Parameter  1 :         c2 parameter
 Parameter  2 :          d parameter
 Parameter  3 :         k1 parameter
 Parameter  4 :       taur parameter
 Parameter  5 :     alphar parameter
 Parameter  6 :        eta parameter
 Parameter  7 :        dp2 parameter
  Functional kind                       .... Correlation
  Functional name                       .... Re-regularized SCAN correlation by Furness et al
  Functional family                     .... MGGA
  Functional refs                              
    [ 0] J. W. Furness, A. D. Kaplan, J. Ning, J. P. Perdew, and J. Sun, J. Phys. Chem. Lett. 11, 8208 (2020)
    [ 1] J. W. Furness, A. D. Kaplan, J. Ning, J. P. Perdew, and J. Sun, J. Phys. Chem. Lett. 11, 9248 (2020)
  Functional external parameters         .... 0
 Gradients option       PostSCFGGA      .... off
   Density functional embedding theory  .... OFF
 RI-approximation to the Coulomb term is turned on
   Number of AuxJ basis functions       .... 268


General Settings:
 Integral files         IntName         .... inp
 Hartree-Fock type      HFTyp           .... RHF
 Total Charge           Charge          ....    0
 Multiplicity           Mult            ....    1
 Number of Electrons    NEL             ....   50
 Basis Dimension        Dim             ....  169
 Nuclear Repulsion      ENuc            ....    244.5937927281 Eh

Convergence Acceleration:
 DIIS                   CNVDIIS         .... on
   Start iteration      DIISMaxIt       ....    12
   Startup error        DIISStart       ....  0.200000
   # of expansion vecs  DIISMaxEq       ....     5
   Bias factor          DIISBfac        ....   1.050
   Max. coefficient     DIISMaxC        ....  10.000
 Trust-Rad. Augm. Hess. CNVTRAH         .... auto
   Auto Start mean grad. ratio tolernc. ....  1.125000
   Auto Start start iteration           ....    20
   Auto Start num. interpolation iter.  ....    10
   Max. Number of Micro iterations      ....    16
   Max. Number of Macro iterations      .... Maxiter - #DIIS iter
   Number of Davidson start vectors     ....     2
   Converg. threshold I  (grad. norm)   ....   1.000e-05
   Converg. threshold II (energy diff.) ....   1.000e-08
   Grad. Scal. Fac. for Micro threshold ....   0.100
   Minimum threshold for Micro iter.    ....   0.010
   NR start threshold (gradient norm)   ....   0.001
   Initial trust radius                 ....   0.400
   Minimum AH scaling param. (alpha)    ....   1.000
   Maximum AH scaling param. (alpha)    .... 1000.000
   Orbital update algorithm             .... Taylor
   White noise on init. David. guess    .... on
   Maximum white noise                  ....   0.010
   Quad. conv. algorithm                .... NR
   COSX micro iterations for RIJONX calc.... off
 SOSCF                  CNVSOSCF        .... on
   Start iteration      SOSCFMaxIt      ....   150
   Startup grad/error   SOSCFStart      ....  0.003300
 Level Shifting         CNVShift        .... on
   Level shift para.    LevelShift      ....    0.2500
   Turn off err/grad.   ShiftErr        ....    0.0010
 Zerner damping         CNVZerner       .... off
 Static damping         CNVDamp         .... on
   Fraction old density DampFac         ....    0.7000
   Max. Damping (<1)    DampMax         ....    0.9800
   Min. Damping (>=0)   DampMin         ....    0.0000
   Turn off err/grad.   DampErr         ....    0.1000
 Fernandez-Rico         CNVRico         .... off

SCF Procedure:
 Maximum # iterations   MaxIter         ....   125
 SCF integral mode      SCFMode         .... Direct
   Integral package                     .... SHARK and LIBINT hybrid scheme
 Reset frequency        DirectResetFreq ....    20
 Integral Threshold     Thresh          ....  2.500e-11 Eh
 Primitive CutOff       TCut            ....  2.500e-12 Eh

Convergence Tolerance:
 Convergence Check Mode ConvCheckMode   .... Total+1el-Energy
 Convergence forced     ConvForced      .... 0
 Energy Change          TolE            ....  1.000e-08 Eh
 1-El. energy change                    ....  1.000e-05 Eh
 Orbital Gradient       TolG            ....  1.000e-05
 Orbital Rotation angle TolX            ....  1.000e-05
 DIIS Error             TolErr          ....  5.000e-07


Diagonalization of the overlap matrix:
Smallest eigenvalue                        ... 4.535e-04
Time for diagonalization                   ...    0.004 sec
Threshold for overlap eigenvalues          ... 1.000e-08
Number of eigenvalues below threshold      ... 0
Time for construction of square roots      ...    0.004 sec
Total time needed                          ...    0.008 sec

Time for model grid setup =    0.042 sec

------------------------------
INITIAL GUESS: MODEL POTENTIAL
------------------------------
Loading Hartree-Fock densities                     ... done
Calculating cut-offs                               ... done
Initializing the effective Hamiltonian             ... done
Setting up the integral package (SHARK)            ... done
Starting the Coulomb interaction                   ... done (   0.0 sec)
Reading the grid                                   ... done
Mapping shells                                     ... done
Starting the XC term evaluation                    ... done (   0.0 sec)
  promolecular density results
     # of electrons  =     49.998436467
     EX              =    -42.126778096
     EC              =     -1.637690044
     EX+EC           =    -43.764468140
Transforming the Hamiltonian                       ... done (   0.0 sec)
Diagonalizing the Hamiltonian                      ... done (   0.0 sec)
Back transforming the eigenvectors                 ... done (   0.0 sec)
Now organizing SCF variables                       ... done
                      ------------------
                      INITIAL GUESS DONE (   0.1 sec)
                      ------------------
-------------------
DFT GRID GENERATION
-------------------

General Integration Accuracy     IntAcc      ... 4.388
Radial Grid Type                 RadialGrid  ... OptM3 with GC (2021)
Angular Grid (max. ang.)         AngularGrid ... 4 (Lebedev-302)
Angular grid pruning method      GridPruning ... 4 (adaptive)
Weight generation scheme         WeightScheme... Becke
Basis function cutoff            BFCut       ... 1.0000e-11
Integration weight cutoff        WCut        ... 1.0000e-14
Angular grids for H and He will be reduced by one unit
Partially contracted basis set               ... off
Rotationally invariant grid construction     ... off

Total number of grid points                  ...    63281
Total number of batches                      ...      996
Average number of points per batch           ...       63
Average number of grid points per atom       ...     4520
Time for grid setup =    0.262 sec

--------------
SCF ITERATIONS
--------------
ITER       Energy         Delta-E        Max-DP      RMS-DP      [F,P]     Damp
               ***  Starting incremental Fock matrix formation  ***
  0   -344.5201085334   0.000000000000 0.05453979  0.00180896  0.2726660 0.7000
  1   -344.6425281291  -0.122419595743 0.03186256  0.00118034  0.0944452 0.7000
                               ***Turning on DIIS***
  2   -344.6814400412  -0.038911912107 0.04035864  0.00162627  0.0365516 0.0000
  3   -344.7513838590  -0.069943817793 0.02085843  0.00084747  0.0529202 0.0000
  4   -344.7645481360  -0.013164276919 0.00641914  0.00028865  0.0184088 0.0000
                      *** Initiating the SOSCF procedure ***
                           *** Shutting down DIIS ***
                      *** Re-Reading the Fockian *** 
                      *** Removing any level shift *** 
ITER      Energy       Delta-E        Grad      Rot      Max-DP    RMS-DP
  5   -344.76597273  -0.0014245904  0.000713  0.000713  0.001847  0.000089
               *** Restarting incremental Fock matrix formation ***
  6   -344.76600407  -0.0000313403  0.000837  0.003029  0.001966  0.000065
  7   -344.76596452   0.0000395472  0.002574  0.002612  0.001501  0.000044
  8   -344.76601333  -0.0000488067  0.000199  0.000469  0.000310  0.000013
  9   -344.76601215   0.0000011752  0.000355  0.000298  0.000196  0.000008
 10   -344.76601382  -0.0000016703  0.000011  0.000026  0.000033  0.000001
 11   -344.76601382   0.0000000051  0.000015  0.000013  0.000020  0.000001
                  ***Gradient check signals convergence***
              ***Rediagonalizing the Fockian in SOSCF/NRSCF***

               *****************************************************
               *                     SUCCESS                       *
               *           SCF CONVERGED AFTER  12 CYCLES          *
               *****************************************************


----------------
TOTAL SCF ENERGY
----------------

Total Energy       :         -344.76601383 Eh           -9381.56019 eV

Components:
Nuclear Repulsion  :          244.59379273 Eh            6655.73547 eV
Electronic Energy  :         -589.35980656 Eh          -16037.29566 eV
One Electron Energy:         -955.24354824 Eh          -25993.49843 eV
Two Electron Energy:          365.88374168 Eh            9956.20277 eV

Virial components:
Potential Energy   :         -688.09552182 Eh          -18724.03106 eV
Kinetic Energy     :          343.32950799 Eh            9342.47087 eV
Virial Ratio       :            2.00418404


DFT components:
N(Alpha)           :       25.000005718546 electrons
N(Beta)            :       25.000005718546 electrons
N(Total)           :       50.000011437091 electrons
E(X)               :      -43.261093841633 Eh       
E(C)               :       -1.609413772931 Eh       
E(XC)              :      -44.870507614563 Eh       
DFET-embed. en.    :        0.000000000000 Eh       

---------------
SCF CONVERGENCE
---------------

  Last Energy change         ...   -1.1709e-08  Tolerance :   1.0000e-08
  Last MAX-Density change    ...    3.4602e-06  Tolerance :   1.0000e-07
  Last RMS-Density change    ...    1.5164e-07  Tolerance :   5.0000e-09
  Last Orbital Gradient      ...    1.3541e-06  Tolerance :   1.0000e-05
  Last Orbital Rotation      ...    1.8462e-06  Tolerance :   1.0000e-05

             **** THE GBW FILE WAS UPDATED (inp.gbw) ****
             **** DENSITY inp.scfp WAS UPDATED ****
             **** ENERGY FILE WAS UPDATED (inp.en.tmp) ****
             **** THE GBW FILE WAS UPDATED (inp.gbw) ****
             **** DENSITY inp.scfp WAS UPDATED ****
----------------
ORBITAL ENERGIES
----------------

  NO   OCC          E(Eh)            E(eV) 
   0   2.0000     -19.015909      -517.4492 
   1   2.0000     -18.953186      -515.7424 
   2   2.0000     -18.948035      -515.6023 
   3   2.0000     -10.178028      -276.9582 
   4   2.0000     -10.073925      -274.1254 
   5   2.0000     -10.050779      -273.4956 
   6   2.0000      -1.083060       -29.4716 
   7   2.0000      -0.995756       -27.0959 
   8   2.0000      -0.979523       -26.6542 
   9   2.0000      -0.735175       -20.0051 
  10   2.0000      -0.647870       -17.6294 
  11   2.0000      -0.589575       -16.0431 
  12   2.0000      -0.478922       -13.0321 
  13   2.0000      -0.468460       -12.7474 
  14   2.0000      -0.454609       -12.3706 
  15   2.0000      -0.446799       -12.1580 
  16   2.0000      -0.404442       -11.0054 
  17   2.0000      -0.392771       -10.6878 
  18   2.0000      -0.386734       -10.5236 
  19   2.0000      -0.379321       -10.3218 
  20   2.0000      -0.368790       -10.0353 
  21   2.0000      -0.312608        -8.5065 
  22   2.0000      -0.301767        -8.2115 
  23   2.0000      -0.258369        -7.0306 
  24   2.0000      -0.239950        -6.5294 
  25   0.0000      -0.035667        -0.9705 
  26   0.0000       0.035217         0.9583 
  27   0.0000       0.079354         2.1593 
  28   0.0000       0.091794         2.4979 
  29   0.0000       0.121570         3.3081 
  30   0.0000       0.139052         3.7838 
  31   0.0000       0.150533         4.0962 
  32   0.0000       0.153145         4.1673 
  33   0.0000       0.166880         4.5410 
  34   0.0000       0.173966         4.7339 
  35   0.0000       0.179873         4.8946 
  36   0.0000       0.185512         5.0480 
  37   0.0000       0.197554         5.3757 
  38   0.0000       0.202537         5.5113 
  39   0.0000       0.220612         6.0032 
  40   0.0000       0.245603         6.6832 
  41   0.0000       0.267286         7.2732 
  42   0.0000       0.272439         7.4134 
  43   0.0000       0.314108         8.5473 
  44   0.0000       0.331426         9.0186 
  45   0.0000       0.336941         9.1686 
  46   0.0000       0.362659         9.8684 
  47   0.0000       0.377924        10.2838 
  48   0.0000       0.387691        10.5496 
  49   0.0000       0.430147        11.7049 
  50   0.0000       0.441321        12.0089 
  51   0.0000       0.461718        12.5640 
  52   0.0000       0.466240        12.6870 
  53   0.0000       0.482230        13.1221 
  54   0.0000       0.488141        13.2830 
  55   0.0000       0.513166        13.9640 
  56   0.0000       0.523240        14.2381 
  57   0.0000       0.551869        15.0171 
  58   0.0000       0.558175        15.1887 
  59   0.0000       0.575662        15.6646 
  60   0.0000       0.595872        16.2145 
  61   0.0000       0.605660        16.4808 
  62   0.0000       0.624305        16.9882 
  63   0.0000       0.654823        17.8186 
  64   0.0000       0.679408        18.4876 
  65   0.0000       0.716736        19.5034 
  66   0.0000       0.738897        20.1064 
  67   0.0000       0.756444        20.5839 
  68   0.0000       0.777978        21.1698 
  69   0.0000       0.793858        21.6020 
  70   0.0000       0.805672        21.9234 
  71   0.0000       0.869550        23.6616 
  72   0.0000       0.898274        24.4433 
  73   0.0000       0.954586        25.9756 
  74   0.0000       0.977476        26.5985 
  75   0.0000       1.006196        27.3800 
  76   0.0000       1.048493        28.5309 
  77   0.0000       1.052401        28.6373 
  78   0.0000       1.067007        29.0347 
  79   0.0000       1.071153        29.1475 
  80   0.0000       1.131143        30.7800 
  81   0.0000       1.160682        31.5838 
  82   0.0000       1.193846        32.4862 
  83   0.0000       1.277167        34.7535 
  84   0.0000       1.296009        35.2662 
  85   0.0000       1.311084        35.6764 
  86   0.0000       1.324669        36.0461 
  87   0.0000       1.337836        36.4044 
  88   0.0000       1.364810        37.1384 
  89   0.0000       1.398652        38.0593 
  90   0.0000       1.426177        38.8083 
  91   0.0000       1.470160        40.0051 
  92   0.0000       1.488559        40.5058 
  93   0.0000       1.559577        42.4382 
  94   0.0000       1.638868        44.5959 
  95   0.0000       1.650173        44.9035 
  96   0.0000       1.685037        45.8522 
  97   0.0000       1.706109        46.4256 
  98   0.0000       1.745706        47.5031 
  99   0.0000       1.778910        48.4066 
 100   0.0000       1.817480        49.4561 
 101   0.0000       1.834525        49.9200 
 102   0.0000       1.852208        50.4011 
 103   0.0000       1.879042        51.1313 
 104   0.0000       1.896726        51.6125 
 105   0.0000       2.078736        56.5653 
 106   0.0000       2.080695        56.6186 
 107   0.0000       2.111278        57.4508 
 108   0.0000       2.144473        58.3541 
 109   0.0000       2.158895        58.7465 
 110   0.0000       2.184427        59.4413 
 111   0.0000       2.223423        60.5024 
 112   0.0000       2.253984        61.3340 
 113   0.0000       2.268512        61.7293 
 114   0.0000       2.288918        62.2846 
 115   0.0000       2.307667        62.7948 
 116   0.0000       2.331004        63.4298 
 117   0.0000       2.394230        65.1503 
 118   0.0000       2.408556        65.5401 
 119   0.0000       2.430716        66.1432 
 120   0.0000       2.499436        68.0131 
 121   0.0000       2.557031        69.5803 
 122   0.0000       2.584849        70.3373 
 123   0.0000       2.611861        71.0723 
 124   0.0000       2.658691        72.3466 
 125   0.0000       2.683367        73.0181 
 126   0.0000       2.699760        73.4642 
 127   0.0000       2.709584        73.7315 
 128   0.0000       2.730807        74.3090 
 129   0.0000       2.745687        74.7139 
 130   0.0000       2.757014        75.0222 
 131   0.0000       2.763768        75.2060 
 132   0.0000       2.788313        75.8738 
 133   0.0000       2.821814        76.7855 
 134   0.0000       2.837141        77.2025 
 135   0.0000       2.853213        77.6399 
 136   0.0000       2.875905        78.2573 
 137   0.0000       2.908027        79.1314 
 138   0.0000       2.984253        81.2056 
 139   0.0000       2.998222        81.5858 
 140   0.0000       3.012967        81.9870 
 141   0.0000       3.023620        82.2769 
 142   0.0000       3.030569        82.4660 
 143   0.0000       3.102761        84.4304 
 144   0.0000       3.137630        85.3793 
 145   0.0000       3.146250        85.6138 
 146   0.0000       3.209762        87.3421 
 147   0.0000       3.237174        88.0880 
 148   0.0000       3.279752        89.2466 
 149   0.0000       3.294568        89.6497 
 150   0.0000       3.329039        90.5878 
 151   0.0000       3.393501        92.3419 
 152   0.0000       3.465461        94.3000 
 153   0.0000       3.506894        95.4274 
 154   0.0000       3.526150        95.9514 
 155   0.0000       3.553373        96.6922 
 156   0.0000       3.586350        97.5896 
 157   0.0000       3.638804        99.0169 
 158   0.0000       4.043515       110.0297 
 159   0.0000       4.097613       111.5017 
 160   0.0000       4.373083       118.9976 
 161   0.0000       4.577964       124.5727 
 162   0.0000       4.596554       125.0786 
 163   0.0000      21.902957       596.0097 
 164   0.0000      21.949025       597.2633 
 165   0.0000      22.180337       603.5576 
 166   0.0000      43.566173      1185.4958 
 167   0.0000      43.577365      1185.8004 
 168   0.0000      43.622484      1187.0281 

                    ********************************
                    * MULLIKEN POPULATION ANALYSIS *
                    ********************************

-----------------------
MULLIKEN ATOMIC CHARGES
-----------------------
   0 C :   -0.486855
   1 C :    0.349321
   2 H :    0.171838
   3 H :    0.203274
   4 H :    0.175885
   5 O :   -0.460357
   6 C :   -0.263062
   7 H :    0.127863
   8 H :    0.144043
   9 H :    0.131282
  10 O :   -0.386036
  11 O :   -0.351211
  12 H :    0.329746
  13 H :    0.314267
Sum of atomic charges:   -0.0000000

--------------------------------
MULLIKEN REDUCED ORBITAL CHARGES
--------------------------------
  0 C s       :     3.305835  s :     3.305835
      pz      :     1.094821  p :     3.155511
      px      :     1.052325
      py      :     1.008365
      dz2     :     0.004428  d :     0.025509
      dxz     :     0.006332
      dyz     :     0.003631
      dx2y2   :     0.002639
      dxy     :     0.008479
  1 C s       :     3.123836  s :     3.123836
      pz      :     0.785315  p :     2.403548
      px      :     0.787354
      py      :     0.830879
      dz2     :     0.029111  d :     0.123295
      dxz     :     0.017667
      dyz     :     0.027662
      dx2y2   :     0.020198
      dxy     :     0.028658
  2 H s       :     0.809952  s :     0.809952
      pz      :     0.007396  p :     0.018210
      px      :     0.006442
      py      :     0.004372
  3 H s       :     0.778039  s :     0.778039
      pz      :     0.003714  p :     0.018687
      px      :     0.006558
      py      :     0.008416
  4 H s       :     0.806357  s :     0.806357
      pz      :     0.008705  p :     0.017758
      px      :     0.005556
      py      :     0.003496
  5 O s       :     3.775801  s :     3.775801
      pz      :     1.398840  p :     4.673057
      px      :     1.698409
      py      :     1.575808
      dz2     :    -0.001890  d :     0.011500
      dxz     :     0.000170
      dyz     :     0.006952
      dx2y2   :     0.002392
      dxy     :     0.003875
  6 C s       :     3.294871  s :     3.294871
      pz      :     0.927235  p :     2.919132
      px      :     0.977931
      py      :     1.013966
      dz2     :     0.007642  d :     0.049059
      dxz     :     0.010545
      dyz     :     0.013683
      dx2y2   :     0.005727
      dxy     :     0.011462
  7 H s       :     0.854937  s :     0.854937
      pz      :     0.004922  p :     0.017200
      px      :     0.005054
      py      :     0.007224
  8 H s       :     0.838581  s :     0.838581
      pz      :     0.006896  p :     0.017376
      px      :     0.004178
      py      :     0.006302
  9 H s       :     0.851554  s :     0.851554
      pz      :     0.003834  p :     0.017164
      px      :     0.008427
      py      :     0.004902
 10 O s       :     3.831852  s :     3.831852
      pz      :     1.580284  p :     4.529580
      px      :     1.589793
      py      :     1.359503
      dz2     :     0.002685  d :     0.024604
      dxz     :     0.002291
      dyz     :     0.008247
      dx2y2   :     0.006151
      dxy     :     0.005230
 11 O s       :     3.724992  s :     3.724992
      pz      :     1.491156  p :     4.598082
      px      :     1.540574
      py      :     1.566352
      dz2     :     0.006889  d :     0.028138
      dxz     :     0.000933
      dyz     :     0.006759
      dx2y2   :     0.005441
      dxy     :     0.008115
 12 H s       :     0.628281  s :     0.628281
      pz      :     0.009562  p :     0.041972
      px      :     0.013003
      py      :     0.019408
 13 H s       :     0.640943  s :     0.640943
      pz      :     0.016067  p :     0.044789
      px      :     0.013076
      py      :     0.015647


                     *******************************
                     * LOEWDIN POPULATION ANALYSIS *
                     *******************************

----------------------
LOEWDIN ATOMIC CHARGES
----------------------
   0 C :   -0.348415
   1 C :    0.340472
   2 H :    0.183654
   3 H :    0.196181
   4 H :    0.176908
   5 O :   -0.639228
   6 C :   -0.093062
   7 H :    0.148222
   8 H :    0.169002
   9 H :    0.148932
  10 O :   -0.401806
  11 O :   -0.439776
  12 H :    0.293027
  13 H :    0.265889

-------------------------------
LOEWDIN REDUCED ORBITAL CHARGES
-------------------------------
  0 C s       :     2.962900  s :     2.962900
      pz      :     1.140896  p :     3.328916
      px      :     1.115505
      py      :     1.072516
      dz2     :     0.009745  d :     0.056599
      dxz     :     0.015865
      dyz     :     0.007470
      dx2y2   :     0.005333
      dxy     :     0.018186
  1 C s       :     2.760822  s :     2.760822
      pz      :     0.831312  p :     2.637325
      px      :     0.799377
      py      :     1.006636
      dz2     :     0.060180  d :     0.261381
      dxz     :     0.038432
      dyz     :     0.062145
      dx2y2   :     0.044531
      dxy     :     0.056094
  2 H s       :     0.772477  s :     0.772477
      pz      :     0.018695  p :     0.043869
      px      :     0.015273
      py      :     0.009900
  3 H s       :     0.757472  s :     0.757472
      pz      :     0.008290  p :     0.046347
      px      :     0.016825
      py      :     0.021232
  4 H s       :     0.779848  s :     0.779848
      pz      :     0.021914  p :     0.043244
      px      :     0.013308
      py      :     0.008022
  5 O s       :     3.534645  s :     3.534645
      pz      :     1.492231  p :     4.837202
      px      :     1.719489
      py      :     1.625482
      dz2     :     0.054588  d :     0.267381
      dxz     :     0.054014
      dyz     :     0.070875
      dx2y2   :     0.038835
      dxy     :     0.049069
  6 C s       :     2.925236  s :     2.925236
      pz      :     0.980690  p :     3.054839
      px      :     1.026858
      py      :     1.047291
      dz2     :     0.015603  d :     0.112987
      dxz     :     0.023753
      dyz     :     0.033406
      dx2y2   :     0.011961
      dxy     :     0.028264
  7 H s       :     0.811833  s :     0.811833
      pz      :     0.011099  p :     0.039945
      px      :     0.012551
      py      :     0.016296
  8 H s       :     0.791840  s :     0.791840
      pz      :     0.014787  p :     0.039158
      px      :     0.008538
      py      :     0.015834
  9 H s       :     0.811198  s :     0.811198
      pz      :     0.009530  p :     0.039869
      px      :     0.019681
      py      :     0.010658
 10 O s       :     3.552513  s :     3.552513
      pz      :     1.576103  p :     4.645543
      px      :     1.559216
      py      :     1.510225
      dz2     :     0.036568  d :     0.203750
      dxz     :     0.018097
      dyz     :     0.054568
      dx2y2   :     0.049919
      dxy     :     0.044598
 11 O s       :     3.505612  s :     3.505612
      pz      :     1.548688  p :     4.695872
      px      :     1.574971
      py      :     1.572213
      dz2     :     0.050875  d :     0.238292
      dxz     :     0.060928
      dyz     :     0.052752
      dx2y2   :     0.026607
      dxy     :     0.047129
 12 H s       :     0.588627  s :     0.588627
      pz      :     0.024043  p :     0.118346
      px      :     0.035063
      py      :     0.059239
 13 H s       :     0.607194  s :     0.607194
      pz      :     0.046040  p :     0.126917
      px      :     0.034550
      py      :     0.046327


                      *****************************
                      * MAYER POPULATION ANALYSIS *
                      *****************************

  NA   - Mulliken gross atomic population
  ZA   - Total nuclear charge
  QA   - Mulliken gross atomic charge
  VA   - Mayer's total valence
  BVA  - Mayer's bonded valence
  FA   - Mayer's free valence

  ATOM       NA         ZA         QA         VA         BVA        FA
  0 C      6.4869     6.0000    -0.4869     3.8325     3.8325     0.0000
  1 C      5.6507     6.0000     0.3493     3.9369     3.9369     0.0000
  2 H      0.8282     1.0000     0.1718     0.9578     0.9578    -0.0000
  3 H      0.7967     1.0000     0.2033     0.9506     0.9506     0.0000
  4 H      0.8241     1.0000     0.1759     0.9599     0.9599     0.0000
  5 O      8.4604     8.0000    -0.4604     1.7636     1.7636    -0.0000
  6 C      6.2631     6.0000    -0.2631     3.8275     3.8275    -0.0000
  7 H      0.8721     1.0000     0.1279     0.9586     0.9586    -0.0000
  8 H      0.8560     1.0000     0.1440     0.9606     0.9606    -0.0000
  9 H      0.8687     1.0000     0.1313     0.9570     0.9570    -0.0000
 10 O      8.3860     8.0000    -0.3860     2.0003     2.0003     0.0000
 11 O      8.3512     8.0000    -0.3512     1.8973     1.8973    -0.0000
 12 H      0.6703     1.0000     0.3297     0.9027     0.9027    -0.0000
 13 H      0.6857     1.0000     0.3143     0.9158     0.9158    -0.0000

  Mayer bond orders larger than 0.100000
B(  0-C ,  1-C ) :   0.9874 B(  0-C ,  2-H ) :   0.9418 B(  0-C ,  3-H ) :   0.9230 
B(  0-C ,  4-H ) :   0.9764 B(  1-C , 10-O ) :   1.9564 B(  1-C , 11-O ) :   0.9714 
B(  5-O ,  6-C ) :   0.9032 B(  5-O , 13-H ) :   0.8684 B(  6-C ,  7-H ) :   0.9612 
B(  6-C ,  8-H ) :   0.9788 B(  6-C ,  9-H ) :   0.9678 B( 11-O , 12-H ) :   0.8655 


-------
TIMINGS
-------

Total SCF time: 0 days 0 hours 0 min 1 sec 

Total time                  ....       1.427 sec
Sum of individual times     ....       1.325 sec  ( 92.8%)

Fock matrix formation       ....       0.859 sec  ( 60.2%)
  Split-RI-J                ....       0.198 sec  ( 23.0% of F)
  XC integration            ....       0.570 sec  ( 66.4% of F)
    Basis function eval.    ....       0.051 sec  (  9.0% of XC)
    Density eval.           ....       0.121 sec  ( 21.3% of XC)
    XC-Functional eval.     ....       0.054 sec  (  9.5% of XC)
    XC-Potential eval.      ....       0.117 sec  ( 20.5% of XC)
Diagonalization             ....       0.037 sec  (  2.6%)
Density matrix formation    ....       0.009 sec  (  0.6%)
Population analysis         ....       0.015 sec  (  1.1%)
Initial guess               ....       0.027 sec  (  1.9%)
Orbital Transformation      ....       0.000 sec  (  0.0%)
Orbital Orthonormalization  ....       0.000 sec  (  0.0%)
DIIS solution               ....       0.033 sec  (  2.3%)
SOSCF solution              ....       0.041 sec  (  2.8%)
Grid generation             ....       0.303 sec  ( 21.3%)

Maximum memory used throughout the entire SCF-calculation: 17.9 MB


-------------------------------------------------------------------------------
                          DFT DISPERSION CORRECTION                            
                                                                               
                                 DFTD4 V2.5                                    
-------------------------------------------------------------------------------
The R2SCAN3C composite method is recognized
Using three-body term ABC
Active option DFTDOPT                   ...         5   

Starting D4
-------------------------   ----------------
Dispersion correction           -0.002806162
-------------------------   ----------------

------------------   -----------------
gCP correction             0.010353459
------------------   -----------------

-------------------------   --------------------
FINAL SINGLE POINT ENERGY      -344.758466530550
-------------------------   --------------------



           ************************************************************
           *        Program running with 32 parallel MPI-processes    *
           *              working on a common directory               *
           ************************************************************
------------------------------------------------------------------------------
                         ORCA SCF GRADIENT CALCULATION
------------------------------------------------------------------------------

Gradient of the Kohn-Sham DFT energy:
Kohn-Sham wavefunction type      ... RKS
Hartree-Fock exchange scaling    ...    0.000
Number of operators              ...    1
Number of atoms                  ...   14
Basis set dimensions             ...  169
Integral neglect threshold       ... 2.5e-11
Integral primitive cutoff        ... 2.5e-12
SHARK Integral package           ... ON

Nuc. rep. gradient       (SHARK) ... done (  0.0 sec)
HCore & Overlap gradient (SHARK) ... done (  0.0 sec)
RI-J gradient            (SHARK) ... done (  0.1 sec)
Exchange-correlation gradient    ... done
Dispersion correction            ... Starting D4
Starting D4
Starting D4
Starting D4
Starting D4
Starting D4
Starting D4
Starting D4
Starting D4
Starting D4
Starting D4
Starting D4
Starting D4
Starting D4
Starting D4
Starting D4
Starting D4
Starting D4
Starting D4


------------------- 
Dispersion Gradient 
------------------- 
   1  :   -0.000066262   -0.000005141   -0.000009128
   2  :   -0.000045011    0.000041946    0.000009443
   3  :   -0.000029451   -0.000003718    0.000002894
   4  :   -0.000023224   -0.000009056   -0.000003018
   5  :   -0.000028886    0.000002278   -0.000012055
   6  :    0.000043879   -0.000040322    0.000015280
   7  :    0.000078373   -0.000032044   -0.000030208
   8  :    0.000034603   -0.000018309   -0.000012984
   9  :    0.000021297   -0.000012625   -0.000007041
  10  :    0.000029115   -0.000015524   -0.000007574
  11  :   -0.000026924    0.000065380   -0.000007290
  12  :   -0.000005471    0.000042330    0.000044759
  13  :   -0.000007778    0.000016223    0.000019069
  14  :    0.000025740   -0.000031420   -0.000002146

  |G| =    0.000176175

Starting D4
Starting D4
Starting D4
Starting D4
Starting D4
Starting D4
Starting D4
Starting D4
Starting D4
Starting D4
Starting D4
Starting D4
Starting D4
done
gCP correction                   ... done

------------------
CARTESIAN GRADIENT
------------------

   1   C   :    0.000042954   -0.000007940    0.000038346
   2   C   :   -0.000005700   -0.000009236    0.000000573
   3   H   :   -0.000010747    0.000009398   -0.000025033
   4   H   :   -0.000007180   -0.000005037   -0.000015621
   5   H   :    0.000001590    0.000025798   -0.000008591
   6   O   :    0.000055998    0.000044805   -0.000027193
   7   C   :   -0.000050907   -0.000001359   -0.000005237
   8   H   :    0.000009625   -0.000016709    0.000019409
   9   H   :    0.000015274   -0.000006334    0.000012158
  10   H   :    0.000008938   -0.000006164   -0.000001828
  11   O   :   -0.000020055   -0.000014964   -0.000005060
  12   O   :    0.000011053    0.000093096   -0.000026337
  13   H   :    0.000004313   -0.000051773    0.000003480
  14   H   :   -0.000055155   -0.000053581    0.000040934

Difference to translation invariance:
           :    0.0000000000   -0.0000000000    0.0000000000

Difference to rotation invariance:
           :   -0.0000762373   -0.0002074259   -0.0001486956

Norm of the cartesian gradient     ...    0.0001887294
RMS gradient                       ...    0.0000291216
MAX gradient                       ...    0.0000930964

-------
TIMINGS
-------

Total SCF gradient time            ...        0.400 sec

One electron gradient       ....       0.012 sec  (  3.0%)
RI-J Coulomb gradient       ....       0.063 sec  ( 15.7%)
XC gradient                 ....       0.101 sec  ( 25.2%)

Maximum memory used throughout the entire SCFGRAD-calculation: 26.4 MB
------------------------------------------------------------------------------
                         ORCA GEOMETRY RELAXATION STEP
------------------------------------------------------------------------------

Reading the OPT-File                    .... done
Getting information on internals        .... done
Copying old internal coords+grads       .... done
Making the new internal coordinates     .... (new redundants).... done
Validating the new internal coordinates .... (new redundants).... done
Calculating the B-matrix                .... done
Calculating the G,G- and P matrices     .... done
Transforming gradient to internals      .... done
Projecting the internal gradient        .... done
Number of atoms                         ....  14
Number of internal coordinates          .... 109
Current Energy                          ....  -344.758466531 Eh
Current gradient norm                   ....     0.000188729 Eh/bohr
Maximum allowed component of the step   ....  0.300
Current trust radius                    ....  0.300
Evaluating the initial hessian          ....  (Almloef) done
Projecting the Hessian                  .... done
Forming the augmented Hessian           .... done
Diagonalizing the augmented Hessian     .... done
Last element of RFO vector              ....  0.999999254
Lowest eigenvalues of augmented Hessian:
 -0.000000064  0.009777022  0.015865526  0.018729299  0.022748417
Length of the computed step             ....  0.001221647
The final length of the internal step   ....  0.001221647
Converting the step to cartesian space:
 Initial RMS(Int)=    0.0001170125
Transforming coordinates:
 Iter   0:  RMS(Cart)=    0.0002004663 RMS(Int)=    0.0001170127
 Iter   1:  RMS(Cart)=    0.0000000188 RMS(Int)=    0.0000000106
done
Storing new coordinates                 .... done

                                .--------------------.
          ----------------------|Geometry convergence|-------------------------
          Item                value                   Tolerance       Converged
          ---------------------------------------------------------------------
          RMS gradient        0.0000091472            0.0000300000      YES
          MAX gradient        0.0000305290            0.0001000000      YES
          RMS step            0.0001170125            0.0006000000      YES
          MAX step            0.0006336582            0.0010000000      YES
          ........................................................
          Max(Bonds)      0.0003      Max(Angles)    0.01
          Max(Dihed)        0.02      Max(Improp)    0.00
          ---------------------------------------------------------------------

                    ***********************HURRAY********************
                    ***        THE OPTIMIZATION HAS CONVERGED     ***
                    *************************************************


    ---------------------------------------------------------------------------
                         Redundant Internal Coordinates

                          --- Optimized Parameters ---  
                            (Angstroem and degrees)

        Definition                    OldVal   dE/dq     Step     FinalVal
    ----------------------------------------------------------------------------
     1. B(C   1,C   0)                1.4968 -0.000024  0.0000    1.4969   
     2. B(H   2,C   0)                1.0947 -0.000010  0.0000    1.0947   
     3. B(H   3,C   0)                1.0959 -0.000000 -0.0000    1.0958   
     4. B(H   4,C   0)                1.0892  0.000008 -0.0000    1.0892   
     5. B(O   5,H   3)                2.5288  0.000000 -0.0000    2.5287   
     6. B(C   6,O   5)                1.4249 -0.000015  0.0000    1.4249   
     7. B(H   7,H   3)                2.6543 -0.000007  0.0000    2.6543   
     8. B(H   7,C   6)                1.1016 -0.000018  0.0000    1.1016   
     9. B(H   8,C   6)                1.0930  0.000002 -0.0000    1.0930   
    10. B(H   9,C   6)                1.0998  0.000003 -0.0000    1.0998   
    11. B(O  10,C   1)                1.2053 -0.000014  0.0000    1.2053   
    12. B(O  11,C   1)                1.3723 -0.000005  0.0000    1.3723   
    13. B(H  12,O  11)                0.9707 -0.000031  0.0000    0.9707   
    14. B(H  13,H   3)                2.4284 -0.000001 -0.0000    2.4284   
    15. B(H  13,O   5)                0.9652  0.000010 -0.0000    0.9652   
    16. B(H  13,H  12)                2.8364 -0.000010 -0.0002    2.8362   
    17. B(H  13,O  11)                2.2098  0.000024 -0.0003    2.2094   
    18. A(H   2,C   0,H   3)          107.09  0.000002   -0.00    107.09   
    19. A(H   3,C   0,H   4)          110.73  0.000007   -0.00    110.73   
    20. A(H   2,C   0,H   4)          110.09 -0.000004    0.00    110.09   
    21. A(C   1,C   0,H   2)          109.61  0.000004   -0.00    109.61   
    22. A(C   1,C   0,H   4)          109.42 -0.000021    0.01    109.42   
    23. A(C   1,C   0,H   3)          109.88  0.000013   -0.01    109.87   
    24. A(C   0,C   1,O  11)          111.44  0.000006   -0.00    111.43   
    25. A(C   0,C   1,O  10)          126.84 -0.000028    0.00    126.84   
    26. A(O  10,C   1,O  11)          121.73  0.000023   -0.00    121.73   
    27. A(C   0,H   3,H  13)          115.85 -0.000008   -0.00    115.85   
    28. A(H   7,H   3,H  13)           54.83 -0.000001    0.00     54.83   
    29. A(O   5,H   3,H  13)           22.34  0.000002    0.00     22.34   
    30. A(O   5,H   3,H   7)           47.89 -0.000005    0.00     47.89   
    31. A(C   0,H   3,H   7)          113.38  0.000000   -0.00    113.38   
    32. A(C   0,H   3,O   5)          137.21 -0.000007   -0.00    137.21   
    33. A(H   3,O   5,H  13)           72.98 -0.000001    0.00     72.98   
    34. A(H   3,O   5,C   6)           97.28 -0.000001    0.00     97.28   
    35. A(C   6,O   5,H  13)          107.32  0.000005   -0.00    107.32   
    36. A(O   5,C   6,H   7)          112.37  0.000002    0.00    112.37   
    37. A(H   8,C   6,H   9)          108.32 -0.000011    0.00    108.33   
    38. A(H   7,C   6,H   9)          108.55 -0.000004    0.00    108.55   
    39. A(O   5,C   6,H   9)          112.19  0.000005   -0.00    112.19   
    40. A(H   7,C   6,H   8)          108.20  0.000008   -0.00    108.20   
    41. A(O   5,C   6,H   8)          107.04 -0.000001    0.00    107.04   
    42. A(H   3,H   7,C   6)          100.64  0.000003   -0.00    100.63   
    43. A(H  12,O  11,H  13)          121.16 -0.000008    0.01    121.16   
    44. A(C   1,O  11,H  13)          109.02 -0.000005    0.00    109.02   
    45. A(C   1,O  11,H  12)          106.25  0.000018   -0.01    106.24   
    46. A(O  11,H  12,H  13)           41.81  0.000011   -0.01     41.81   
    47. A(H   3,H  13,O  11)           68.76 -0.000000    0.00     68.76   
    48. A(O   5,H  13,O  11)          145.25 -0.000006    0.00    145.26   
    49. A(H   3,H  13,O   5)           84.69 -0.000001   -0.00     84.69   
    50. A(O  11,H  13,H  12)           17.03 -0.000003    0.00     17.03   
    51. A(H   3,H  13,H  12)           83.20 -0.000002    0.00     83.20   
    52. A(O   5,H  13,H  12)          145.66 -0.000006    0.01    145.67   
    53. D(O  10,C   1,C   0,H   4)      1.05 -0.000006   -0.01      1.04   
    54. D(O  11,C   1,C   0,H   3)    -57.27 -0.000004   -0.00    -57.28   
    55. D(O  11,C   1,C   0,H   2)     60.15  0.000009   -0.01     60.13   
    56. D(O  11,C   1,C   0,H   4)   -179.05 -0.000007   -0.00   -179.05   
    57. D(O  10,C   1,C   0,H   3)    122.82 -0.000003   -0.01    122.82   
    58. D(O  10,C   1,C   0,H   2)   -119.76  0.000010   -0.01   -119.77   
    59. D(O   5,H   3,C   0,H   4)    146.57 -0.000009   -0.00    146.57   
    60. D(O   5,H   3,C   0,C   1)     25.58  0.000005   -0.00     25.58   
    61. D(H  13,H   3,C   0,C   1)     33.85  0.000006   -0.00     33.85   
    62. D(H   7,H   3,C   0,H   2)   -145.93 -0.000003    0.00   -145.92   
    63. D(H   7,H   3,C   0,H   4)     94.04 -0.000004    0.00     94.04   
    64. D(H  13,H   3,C   0,H   2)    -85.13 -0.000007    0.00    -85.12   
    65. D(H   7,H   3,C   0,C   1)    -26.95  0.000009   -0.00    -26.95   
    66. D(H  13,H   3,C   0,H   4)    154.84 -0.000008    0.00    154.84   
    67. D(O   5,H   3,C   0,H   2)    -93.40 -0.000008    0.00    -93.39   
    68. D(H  13,O   5,H   3,H   7)     99.02  0.000005   -0.00     99.02   
    69. D(H  13,O   5,H   3,C   0)     19.91  0.000003    0.00     19.91   
    70. D(C   6,O   5,H   3,H  13)   -105.95 -0.000006    0.00   -105.95   
    71. D(C   6,O   5,H   3,H   7)     -6.93 -0.000001   -0.00     -6.93   
    72. D(C   6,O   5,H   3,C   0)    -86.04 -0.000003    0.00    -86.04   
    73. D(H   9,C   6,O   5,H   3)    136.14  0.000002    0.00    136.14   
    74. D(H   8,C   6,O   5,H   3)   -105.17 -0.000008    0.00   -105.16   
    75. D(H   8,C   6,O   5,H  13)   -179.54 -0.000007    0.00   -179.54   
    76. D(H   7,C   6,O   5,H   3)     13.49  0.000002    0.00     13.49   
    77. D(H   9,C   6,O   5,H  13)     61.76  0.000004   -0.00     61.76   
    78. D(H   7,C   6,O   5,H  13)    -60.89  0.000004    0.00    -60.89   
    79. D(H   3,H   7,C   6,O   5)    -12.96 -0.000003   -0.00    -12.96   
    80. D(C   6,H   7,H   3,H  13)     36.40  0.000004    0.00     36.40   
    81. D(C   6,H   7,H   3,O   5)      9.06  0.000001    0.00      9.06   
    82. D(H   3,H   7,C   6,H   8)    105.01  0.000003   -0.00    105.01   
    83. D(C   6,H   7,H   3,C   0)    142.44 -0.000007    0.00    142.45   
    84. D(H   3,H   7,C   6,H   9)   -137.64 -0.000007    0.00   -137.64   
    85. D(H  13,O  11,C   1,O  10)   -131.55 -0.000012    0.02   -131.53   
    86. D(H  13,O  11,C   1,C   0)     48.54 -0.000011    0.02     48.56   
    87. D(H  12,O  11,C   1,O  10)      0.56 -0.000012    0.02      0.58   
    88. D(H  12,O  11,C   1,C   0)   -179.35 -0.000011    0.02   -179.33   
    89. D(H  13,H  12,O  11,C   1)   -124.95 -0.000004    0.00   -124.95   
    90. D(H   3,H  13,H  12,O  11)     31.10 -0.000004   -0.00     31.09   
    91. D(O   5,H  13,H  12,O  11)    101.22 -0.000005   -0.00    101.22   
    92. D(H   3,H  13,O  11,H  12)   -146.62 -0.000004   -0.00   -146.62   
    93. D(H   3,H  13,O  11,C   1)    -22.96  0.000010   -0.01    -22.97   
    94. D(O   5,H  13,O  11,H  12)   -103.89  0.000005   -0.01   -103.90   
    95. D(O   5,H  13,O  11,C   1)     19.77  0.000019   -0.02     19.75   
    96. D(H  12,H  13,O   5,H   3)    -69.69  0.000002   -0.00    -69.70   
    97. D(H  12,H  13,O   5,C   6)     22.79 -0.000001   -0.00     22.79   
    98. D(O  11,H  13,O   5,H   3)    -39.43 -0.000008    0.00    -39.43   
    99. D(O  11,H  13,O   5,C   6)     53.05 -0.000011    0.01     53.06   
   100. D(H   3,H  13,O   5,C   6)     92.48 -0.000003    0.00     92.48   
   101. D(H  12,H  13,H   3,H   7)     84.13  0.000003    0.00     84.13   
   102. D(H  12,H  13,H   3,O   5)    147.81 -0.000005    0.01    147.81   
   103. D(H  12,H  13,H   3,C   0)    -17.30 -0.000002    0.01    -17.29   
   104. D(O  11,H  13,H   3,H   7)     93.47  0.000001    0.00     93.47   
   105. D(O  11,H  13,H   3,O   5)    157.15 -0.000008    0.00    157.15   
   106. D(H  12,H  13,O  11,C   1)    123.66  0.000014   -0.01    123.66   
   107. D(O  11,H  13,H   3,C   0)     -7.96 -0.000005    0.01     -7.95   
   108. D(O   5,H  13,H   3,H   7)    -63.68  0.000008   -0.00    -63.68   
   109. D(O   5,H  13,H   3,C   0)   -165.10  0.000003    0.00   -165.10   
    ----------------------------------------------------------------------------
                 *******************************************************
                 *** FINAL ENERGY EVALUATION AT THE STATIONARY POINT ***
                 ***               (AFTER    1 CYCLES)               ***
                 *******************************************************
---------------------------------
CARTESIAN COORDINATES (ANGSTROEM)
---------------------------------
  C     -2.891372   -0.283408   -0.119711
  C     -2.098286    0.910554    0.311643
  H     -3.562706   -0.590099    0.688807
  H     -2.218891   -1.125888   -0.316849
  H     -3.467301   -0.033391   -1.009689
  O      0.074974   -1.883424    0.430663
  C      0.829763   -1.143339   -0.524831
  H      0.224320   -0.377500   -1.035144
  H      1.182785   -1.855368   -1.275253
  H      1.705226   -0.653901   -0.073646
  O     -2.089348    1.998232   -0.207616
  O     -1.338949    0.634147    1.420850
  H     -0.868905    1.454867    1.639485
  H     -0.245020   -1.257024    1.091560

----------------------------
CARTESIAN COORDINATES (A.U.)
----------------------------
  NO LB      ZA    FRAG     MASS         X           Y           Z
   0 C     6.0000    0    12.011   -5.463902   -0.535564   -0.226220
   1 C     6.0000    0    12.011   -3.965187    1.720698    0.588921
   2 H     1.0000    0     1.008   -6.732539   -1.115126    1.301657
   3 H     1.0000    0     1.008   -4.193096   -2.127620   -0.598758
   4 H     1.0000    0     1.008   -6.552249   -0.063100   -1.908035
   5 O     8.0000    0    15.999    0.141680   -3.559155    0.813835
   6 C     6.0000    0    12.011    1.568025   -2.160597   -0.991787
   7 H     1.0000    0     1.008    0.423903   -0.713372   -1.956139
   8 H     1.0000    0     1.008    2.235139   -3.506137   -2.409880
   9 H     1.0000    0     1.008    3.222410   -1.235694   -0.139171
  10 O     8.0000    0    15.999   -3.948295    3.776111   -0.392337
  11 O     8.0000    0    15.999   -2.530247    1.198365    2.685017
  12 H     1.0000    0     1.008   -1.641992    2.749301    3.098178
  13 H     1.0000    0     1.008   -0.463020   -2.375431    2.062749

--------------------------------
INTERNAL COORDINATES (ANGSTROEM)
--------------------------------
 C      0   0   0     0.000000000000     0.00000000     0.00000000
 C      1   0   0     1.496862707613     0.00000000     0.00000000
 H      1   2   0     1.094737098231   109.60557988     0.00000000
 H      1   2   3     1.095840976936   109.87241863   242.58809301
[...]
     10      -0.008935   0.183461  -0.204306  -0.247738   0.252572   0.019209
     11      -0.215706  -0.051437   0.015315  -0.077382  -0.326622   0.520884
     12       0.235090   0.138115  -0.083464  -0.147551  -0.347657  -0.437545
     13       0.461649   0.314202  -0.190028  -0.342235  -0.307370   0.318198
     14       0.118854   0.020691   0.035129   0.061795   0.176334   0.355905
     15       0.001114   0.000498  -0.001774  -0.000398  -0.003531   0.006685
     16      -0.007711  -0.004939  -0.063169   0.045279  -0.007060   0.003536
     17       0.000537  -0.002006  -0.016659   0.012115   0.004396  -0.005475
     18      -0.000744  -0.001912  -0.029116   0.021063  -0.016804   0.023519
     19       0.012813   0.002522   0.072561  -0.049979  -0.008945   0.012612
     20       0.002715   0.003868   0.063973  -0.049137   0.027848  -0.020704
     21       0.029932   0.015312  -0.007019   0.007632   0.124412  -0.124339
     22       0.007071   0.009472  -0.102177   0.084378   0.000731  -0.044826
     23      -0.045428  -0.008015  -0.225496   0.172464  -0.143084   0.078088
     24      -0.036160  -0.009634  -0.123322   0.105033   0.049835  -0.154848
     25      -0.045259  -0.015124  -0.099997   0.060187   0.150762  -0.148433
     26       0.040345   0.016825   0.183515  -0.115379  -0.098122   0.055096
     27       0.024167   0.007157   0.186574  -0.124435   0.052879  -0.087488
     28       0.000805   0.016129  -0.144312   0.100497   0.026315  -0.018517
     29      -0.034765  -0.026907  -0.113338   0.069366  -0.136385   0.205356
     30       0.012430   0.022919   0.005377   0.009007  -0.003920  -0.001576
     31       0.077560  -0.047004  -0.009408  -0.014300  -0.018654   0.006136
     32      -0.023132   0.053121   0.011462   0.018164   0.005503  -0.000522
     33       0.055166   0.026863   0.004044   0.014326  -0.003109  -0.002354
     34      -0.081716   0.073406   0.011378   0.015704  -0.001155   0.001082
     35       0.107187   0.003557   0.003213   0.009582  -0.001515   0.001469
     36      -0.334272   0.383889   0.063778   0.082188  -0.017648  -0.004660
     37       0.333987  -0.332867  -0.053232  -0.069477   0.013943   0.000155
     38      -0.550982   0.630332   0.095386   0.142361  -0.018710   0.008811
     39      -0.022332   0.023525   0.342808  -0.230030   0.026184  -0.019452
     40      -0.014443   0.008994   0.485656  -0.365044   0.038116  -0.000915
     41       0.000865   0.006096  -0.348470   0.276764  -0.020847  -0.014279
                 30         31         32         33         34         35    
      0       0.002963   0.001796   0.000916  -0.022745   0.000355   0.000856
      1      -0.000134  -0.003606  -0.000203  -0.067058  -0.000597   0.004653
      2       0.023634  -0.004204   0.005152   0.002739  -0.000511   0.000139
      3       0.002056   0.006116  -0.004162   0.059075  -0.000149  -0.000117
      4       0.007995  -0.001095  -0.000774   0.636734  -0.000233   0.000134
      5       0.007093   0.000205  -0.004422  -0.233407   0.000208   0.000101
      6      -0.085006  -0.037524  -0.016574   0.020360   0.001084  -0.031112
      7       0.191794   0.000628   0.036548  -0.158356  -0.000258  -0.013788
      8       0.014045  -0.033590   0.002331  -0.010024  -0.000633   0.037599
      9       0.002100   0.045318   0.009212  -0.091933  -0.006086   0.037802
     10       0.083273   0.018688   0.020933  -0.119219   0.007976  -0.048784
     11      -0.323576   0.051298  -0.056820   0.069311   0.003573  -0.011437
     12       0.052041  -0.059806   0.011170   0.079952   0.001494  -0.017702
     13      -0.228945   0.030531  -0.029809   0.223662  -0.000331   0.007906
     14      -0.078456   0.045527  -0.011132  -0.012613   0.003206  -0.027242
     15       0.007711  -0.007639   0.000295  -0.001986  -0.001473  -0.000071
     16      -0.002917  -0.002371   0.025475   0.000051  -0.001573   0.000122
     17      -0.013704  -0.006115   0.004103   0.001162   0.001713  -0.000515
     18       0.045733  -0.048042   0.007811   0.002094  -0.007443   0.080414
     19       0.035336   0.002167   0.047182   0.001805  -0.045500  -0.010347
     20      -0.060778  -0.028918  -0.013692  -0.004506   0.022017   0.045728
     21      -0.284280  -0.109473  -0.473732  -0.000564  -0.437403  -0.338698
     22       0.023232   0.233618  -0.434002   0.006578   0.519861   0.426283
     23       0.336790   0.448253  -0.100731   0.002395  -0.346938  -0.261872
     24      -0.272072   0.564317   0.209676   0.004090   0.096875  -0.002870
     25      -0.473239  -0.142963   0.183655  -0.005704  -0.196683   0.047084
     26       0.294313   0.401020  -0.076513   0.000588  -0.198387   0.066276
     27      -0.181825   0.233285   0.239594   0.001215   0.458124  -0.609990
     28       0.007845  -0.100944  -0.600781  -0.002412   0.239032  -0.353791
     29       0.384651  -0.386832   0.192871   0.005295   0.246468  -0.338793
     30      -0.001041  -0.000914   0.000527  -0.009471   0.000059  -0.000013
     31      -0.008612   0.000809  -0.001235  -0.384819   0.000145  -0.000108
     32       0.002336  -0.000458   0.001304   0.174775  -0.000095  -0.000009
     33      -0.000682  -0.001038   0.002367  -0.004041   0.000064   0.000018
     34      -0.000781  -0.000651   0.000197  -0.052281   0.000123   0.000090
     35      -0.001017   0.000129   0.001336   0.019269  -0.000114  -0.000126
     36       0.003582  -0.006152  -0.001952  -0.227936  -0.001112  -0.000066
     37       0.000057   0.005531   0.000344   0.203485   0.000373  -0.001290
     38      -0.009317  -0.008338   0.007343  -0.381087   0.000870   0.000189
     39       0.065663   0.000447  -0.082408   0.002959  -0.005322  -0.003306
     40       0.076633   0.020247  -0.115327  -0.020765   0.002805   0.000970
     41      -0.063805  -0.022828   0.090073   0.030085   0.009229  -0.002129
                 36         37         38         39         40         41    
      0       0.013088   0.004550   0.071989   0.038412   0.000325  -0.000094
      1       0.050488  -0.001520  -0.024839  -0.039332   0.000865   0.000320
      2       0.002964  -0.002914  -0.050301   0.075439  -0.000028   0.000016
      3      -0.000578  -0.000224   0.000323  -0.000006  -0.001967  -0.000860
      4       0.000043   0.000026  -0.000666  -0.002524  -0.001516  -0.000064
      5      -0.000918  -0.000229  -0.000853   0.001342  -0.001697  -0.001412
      6      -0.362424  -0.027600  -0.451966   0.191290  -0.000359  -0.000547
      7      -0.156195  -0.013450  -0.218601   0.077267  -0.000353  -0.000176
      8       0.434730   0.033776   0.550702  -0.213689   0.002166   0.000507
      9       0.429066  -0.024195  -0.394101  -0.158377   0.001476   0.004239
     10      -0.529525   0.030900   0.511127   0.196750  -0.000999  -0.002895
     11      -0.132516   0.006659   0.112174   0.060458   0.000570   0.000154
     12      -0.211181  -0.002420  -0.018714  -0.484582   0.000080   0.000194
     13       0.095576   0.001240   0.010338   0.209511  -0.000527   0.000557
     14      -0.331437  -0.005498  -0.054253  -0.746238   0.000387   0.000709
     15       0.000121  -0.000204  -0.000067  -0.000060   0.001002  -0.021545
     16      -0.000125   0.001438  -0.000056   0.000073  -0.001811   0.038907
     17      -0.000140   0.000824   0.000140   0.000036  -0.002077   0.043820
     18      -0.006916   0.018829  -0.000870   0.000165   0.000121  -0.000157
     19       0.000393  -0.069465   0.004635   0.000132  -0.000119   0.001729
     20      -0.003309  -0.055356   0.003126   0.000231  -0.000051   0.001069
     21       0.024436  -0.103396   0.007725  -0.000600  -0.000337   0.000020
     22      -0.030444   0.107269  -0.009265   0.000919   0.000101   0.004615
     23       0.017988  -0.089689   0.007713  -0.000132  -0.000413  -0.004536
     24       0.001496  -0.302956   0.017868   0.000786  -0.000517   0.004710
     25      -0.006234   0.629124  -0.037527  -0.001390   0.000947  -0.009727
     26      -0.008169   0.648033  -0.038156  -0.001332   0.000774  -0.010957
     27       0.054683   0.185334  -0.015724  -0.001810  -0.000441   0.003161
     28       0.031613   0.083044  -0.007728  -0.000891  -0.000300   0.002429
     29       0.029473   0.093429  -0.007325  -0.000797  -0.000061  -0.002479
     30      -0.000098   0.000041   0.000205  -0.000031   0.000268   0.000150
     31      -0.000752  -0.000025   0.000073   0.000948  -0.000488  -0.000289
     32       0.000386   0.000059  -0.000086  -0.000554   0.000540   0.000438
     33      -0.000097   0.000122   0.000083  -0.000337  -0.030143  -0.001138
     34       0.000179   0.000046   0.000025  -0.000088  -0.051307  -0.002229
     35      -0.000103   0.000096   0.000107  -0.000374  -0.014807  -0.000138
     36      -0.000785  -0.000936  -0.000844   0.000568   0.492330   0.024977
     37      -0.002747  -0.000254   0.000089   0.001392   0.832054   0.038763
     38       0.000072   0.000404   0.000672   0.000032   0.243465   0.012240
     39      -0.000752   0.000911   0.000957  -0.000071  -0.015844   0.334128
     40       0.002239  -0.015498  -0.000419  -0.001195   0.029093  -0.634797
     41       0.002649  -0.005617  -0.001796  -0.001780   0.033673  -0.692008


-----------
IR SPECTRUM
-----------

 Mode   freq       eps      Int      T**2         TX        TY        TZ
       cm**-1   L/(mol*cm) km/mol    a.u.
----------------------------------------------------------------------------
  6:     19.73   0.000452    2.28  0.007150  (-0.055644  0.013444  0.062229)
  7:     48.80   0.000795    4.02  0.005086  ( 0.052528 -0.010603  0.047058)
  8:     78.93   0.001011    5.11  0.003995  ( 0.058857 -0.022882  0.002772)
  9:     93.96   0.001313    6.63  0.004360  (-0.055682  0.021761 -0.028034)
 10:    119.82   0.000452    2.28  0.001176  ( 0.002934 -0.003898  0.033947)
 11:    130.41   0.000421    2.13  0.001008  (-0.015552  0.007816 -0.026555)
 12:    142.81   0.000321    1.62  0.000701  (-0.025148 -0.001208 -0.008189)
 13:    433.01   0.000531    2.68  0.000382  ( 0.002773 -0.010971  0.015947)
 14:    498.13   0.024666  124.65  0.015452  ( 0.092972 -0.049023  0.066372)
 15:    548.80   0.006816   34.45  0.003876  ( 0.049012 -0.030198 -0.023706)
 16:    588.56   0.007819   39.51  0.004146  ( 0.046269  0.016305  0.041703)
 17:    664.16   0.021158  106.92  0.009941  (-0.079109  0.037291  0.047881)
 18:    854.11   0.001678    8.48  0.000613  (-0.009454  0.016925 -0.015406)
 19:    990.02   0.017203   86.94  0.005423  (-0.042676  0.007261 -0.059571)
 20:   1042.65   0.017353   87.69  0.005194  (-0.043986 -0.036398  0.043978)
 21:   1060.83   0.002376   12.01  0.000699  ( 0.018158 -0.009414 -0.016750)
 22:   1094.21   0.001739    8.79  0.000496  ( 0.001038 -0.018497  0.012354)
 23:   1172.84   0.000040    0.20  0.000011  ( 0.003118  0.000921  0.000427)
 24:   1198.36   0.040705  205.71  0.010600  (-0.066313  0.009251 -0.078211)
 25:   1322.97   0.001878    9.49  0.000443  (-0.013771  0.006608 -0.014484)
 26:   1395.43   0.003316   16.76  0.000741  (-0.012809  0.005910 -0.023291)
 27:   1402.48   0.011133   56.26  0.002477  (-0.037024 -0.031504 -0.010669)
 28:   1462.90   0.003155   15.94  0.000673  (-0.008277  0.023547 -0.007070)
 29:   1466.92   0.001139    5.76  0.000242  (-0.006640 -0.000312  0.014075)
 30:   1477.67   0.001475    7.46  0.000312  ( 0.003880  0.013991 -0.010037)
 31:   1487.46   0.000824    4.16  0.000173  ( 0.006298  0.001889  0.011382)
 32:   1505.58   0.001213    6.13  0.000251  ( 0.007550 -0.011041 -0.008511)
 33:   1824.64   0.060028  303.35  0.010266  (-0.010544  0.088628 -0.047961)
 34:   2960.41   0.010128   51.18  0.001068  (-0.010986 -0.023786  0.019523)
 35:   3022.48   0.010523   53.18  0.001086  ( 0.030501 -0.004515  0.011652)
 36:   3029.66   0.000523    2.64  0.000054  ( 0.006058 -0.004016 -0.001032)
 37:   3103.94   0.004495   22.72  0.000452  ( 0.006811 -0.015147 -0.013271)
 38:   3106.17   0.000592    2.99  0.000059  (-0.004824  0.005797 -0.001615)
 39:   3168.22   0.000242    1.22  0.000024  ( 0.001432  0.002036  0.004200)
 40:   3741.24   0.012353   62.43  0.001030  ( 0.015409  0.023244  0.015896)
 41:   3794.96   0.018689   94.45  0.001537  ( 0.025002 -0.022131 -0.020542)

* The epsilon (eps) is given for a Dirac delta lineshape.
** The dipole moment derivative (T) already includes vibrational overlap.

The first frequency considered to be a vibration is 6
The total number of vibrations considered is 36


--------------------------
THERMOCHEMISTRY AT 298.15K
--------------------------

Temperature         ... 298.15 K
Pressure            ... 1.00 atm
Total Mass          ... 92.09 AMU

Throughout the following assumptions are being made:
  (1) The electronic state is orbitally nondegenerate
  (2) There are no thermally accessible electronically excited states
  (3) Hindered rotations indicated by low frequency modes are not
      treated as such but are treated as vibrations and this may
      cause some error
  (4) All equations used are the standard statistical mechanics
      equations for an ideal gas
  (5) All vibrations are strictly harmonic

freq.      19.73  E(vib)   ...       0.56 
freq.      48.80  E(vib)   ...       0.53 
freq.      78.93  E(vib)   ...       0.49 
freq.      93.96  E(vib)   ...       0.47 
freq.     119.82  E(vib)   ...       0.44 
freq.     130.41  E(vib)   ...       0.43 
freq.     142.81  E(vib)   ...       0.41 
freq.     433.01  E(vib)   ...       0.17 
freq.     498.13  E(vib)   ...       0.14 
freq.     548.80  E(vib)   ...       0.12 
freq.     588.56  E(vib)   ...       0.10 
freq.     664.16  E(vib)   ...       0.08 
freq.     854.11  E(vib)   ...       0.04 
freq.     990.02  E(vib)   ...       0.02 
freq.    1042.65  E(vib)   ...       0.02 
freq.    1060.83  E(vib)   ...       0.02 
freq.    1094.21  E(vib)   ...       0.02 
freq.    1172.84  E(vib)   ...       0.01 
freq.    1198.36  E(vib)   ...       0.01 
freq.    1322.97  E(vib)   ...       0.01 
freq.    1395.43  E(vib)   ...       0.00 
freq.    1402.48  E(vib)   ...       0.00 
freq.    1462.90  E(vib)   ...       0.00 
freq.    1466.92  E(vib)   ...       0.00 
freq.    1477.67  E(vib)   ...       0.00 
freq.    1487.46  E(vib)   ...       0.00 
freq.    1505.58  E(vib)   ...       0.00 
freq.    1824.64  E(vib)   ...       0.00 
freq.    2960.41  E(vib)   ...       0.00 
freq.    3022.48  E(vib)   ...       0.00 
freq.    3029.66  E(vib)   ...       0.00 
freq.    3103.94  E(vib)   ...       0.00 
freq.    3106.17  E(vib)   ...       0.00 
freq.    3168.22  E(vib)   ...       0.00 
freq.    3741.24  E(vib)   ...       0.00 
freq.    3794.96  E(vib)   ...       0.00 

------------
INNER ENERGY
------------

The inner energy is: U= E(el) + E(ZPE) + E(vib) + E(rot) + E(trans)
    E(el)   - is the total energy from the electronic structure calculation
              = E(kin-el) + E(nuc-el) + E(el-el) + E(nuc-nuc)
    E(ZPE)  - the the zero temperature vibrational energy from the frequency calculation
    E(vib)  - the the finite temperature correction to E(ZPE) due to population
              of excited vibrational states
    E(rot)  - is the rotational thermal energy
    E(trans)- is the translational thermal energy

Summary of contributions to the inner energy U:
Electronic energy                ...   -344.75846658 Eh
Zero point energy                ...      0.11402973 Eh      71.55 kcal/mol
Thermal vibrational correction   ...      0.00655670 Eh       4.11 kcal/mol
Thermal rotational correction    ...      0.00141627 Eh       0.89 kcal/mol
Thermal translational correction ...      0.00141627 Eh       0.89 kcal/mol
-----------------------------------------------------------------------
Total thermal energy                   -344.63504761 Eh


Summary of corrections to the electronic energy:
(perhaps to be used in another calculation)
Total thermal correction                  0.00938924 Eh       5.89 kcal/mol
Non-thermal (ZPE) correction              0.11402973 Eh      71.55 kcal/mol
-----------------------------------------------------------------------
Total correction                          0.12341897 Eh      77.45 kcal/mol


--------
ENTHALPY
--------

The enthalpy is H = U + kB*T
                kB is Boltzmann's constant
Total free energy                 ...   -344.63504761 Eh 
Thermal Enthalpy correction       ...      0.00094421 Eh       0.59 kcal/mol
-----------------------------------------------------------------------
Total Enthalpy                    ...   -344.63410340 Eh


Note: Only C1 symmetry has been detected, increase convergence thresholds 
      if your molecule has a higher symmetry. Symmetry factor of 1.0 is   
      used for the rotational entropy correction. 
 

Note: Rotational entropy computed according to Herzberg 
Infrared and Raman Spectra, Chapter V,1, Van Nostrand Reinhold, 1945 
Point Group:  C1, Symmetry Number:   1  
Rotational constants in cm-1:     0.168328     0.054204     0.051790 

Vibrational entropy computed according to the QRRHO of S. Grimme
Chem.Eur.J. 2012 18 9955


-------
ENTROPY
-------

The entropy contributions are T*S = T*(S(el)+S(vib)+S(rot)+S(trans))
     S(el)   - electronic entropy
     S(vib)  - vibrational entropy
     S(rot)  - rotational entropy
     S(trans)- translational entropy
The entropies will be listed as multiplied by the temperature to get
units of energy

Electronic entropy                ...      0.00000000 Eh      0.00 kcal/mol
Vibrational entropy               ...      0.01270756 Eh      7.97 kcal/mol
Rotational entropy                ...      0.01312580 Eh      8.24 kcal/mol
Translational entropy             ...      0.01875460 Eh     11.77 kcal/mol
-----------------------------------------------------------------------
Final entropy term                ...      0.04458796 Eh     27.98 kcal/mol

In case the symmetry of your molecule has not been determined correctly
or in case you have a reason to use a different symmetry number we print 
out the resulting rotational entropy values for sn=1,12 :
 --------------------------------------------------------
|  sn= 1 | S(rot)=       0.01312580 Eh      8.24 kcal/mol|
|  sn= 2 | S(rot)=       0.01247135 Eh      7.83 kcal/mol|
|  sn= 3 | S(rot)=       0.01208851 Eh      7.59 kcal/mol|
|  sn= 4 | S(rot)=       0.01181689 Eh      7.42 kcal/mol|
|  sn= 5 | S(rot)=       0.01160620 Eh      7.28 kcal/mol|
|  sn= 6 | S(rot)=       0.01143406 Eh      7.17 kcal/mol|
|  sn= 7 | S(rot)=       0.01128851 Eh      7.08 kcal/mol|
|  sn= 8 | S(rot)=       0.01116243 Eh      7.00 kcal/mol|
|  sn= 9 | S(rot)=       0.01105123 Eh      6.93 kcal/mol|
|  sn=10 | S(rot)=       0.01095175 Eh      6.87 kcal/mol|
|  sn=11 | S(rot)=       0.01086176 Eh      6.82 kcal/mol|
|  sn=12 | S(rot)=       0.01077960 Eh      6.76 kcal/mol|
 --------------------------------------------------------


-------------------
GIBBS FREE ENERGY
-------------------

The Gibbs free energy is G = H - T*S

Total enthalpy                    ...   -344.63410340 Eh 
Total entropy correction          ...     -0.04458796 Eh    -27.98 kcal/mol
-----------------------------------------------------------------------
Final Gibbs free energy         ...   -344.67869135 Eh

For completeness - the Gibbs free energy minus the electronic energy
G-E(el)                           ...      0.07977523 Eh     50.06 kcal/mol


Timings for individual modules:

Sum of individual times         ...       18.103 sec (=   0.302 min)
GTO integral calculation        ...        1.347 sec (=   0.022 min)   7.4 %
SCF iterations                  ...        3.325 sec (=   0.055 min)  18.4 %
SCF Gradient evaluation         ...        0.954 sec (=   0.016 min)   5.3 %
Geometry relaxation             ...        0.034 sec (=   0.001 min)   0.2 %
Analytical frequency calculation...       12.443 sec (=   0.207 min)  68.7 %
                             ****ORCA TERMINATED NORMALLY****
TOTAL RUN TIME: 0 days 0 hours 0 minutes 18 seconds 909 msec
