
                                 *****************
                                 * O   R   C   A *
                                 *****************

                                            #,                                       
                                            ###                                      
                                            ####                                     
                                            #####                                    
                                            ######                                   
                                           ########,                                 
                                     ,,################,,,,,                         
                               ,,#################################,,                 
                          ,,##########################################,,             
                       ,#########################################, ''#####,          
                    ,#############################################,,   '####,        
                  ,##################################################,,,,####,       
                ,###########''''           ''''###############################       
              ,#####''   ,,,,##########,,,,          '''####'''          '####       
            ,##' ,,,,###########################,,,                        '##       
           ' ,,###''''                  '''############,,,                           
         ,,##''                                '''############,,,,        ,,,,,,###''
      ,#''                                            '''#######################'''  
     '                                                          ''''####''''         
             ,#######,   #######,   ,#######,      ##                                
            ,#'     '#,  ##    ##  ,#'     '#,    #''#        ######   ,####,        
            ##       ##  ##   ,#'  ##            #'  '#       #        #'  '#        
            ##       ##  #######   ##           ,######,      #####,   #    #        
            '#,     ,#'  ##    ##  '#,     ,#' ,#      #,         ##   #,  ,#        
             '#######'   ##     ##  '#######'  #'      '#     #####' # '####'        



                  #######################################################
                  #                        -***-                        #
                  #          Department of theory and spectroscopy      #
                  #    Directorship and core code : Frank Neese         #
                  #        Max Planck Institute fuer Kohlenforschung    #
                  #                Kaiser Wilhelm Platz 1               #
                  #                 D-45470 Muelheim/Ruhr               #
                  #                      Germany                        #
                  #                                                     #
                  #                  All rights reserved                #
                  #                        -***-                        #
                  #######################################################


                         Program Version 5.0.4 -  RELEASE  -


 With contributions from (in alphabetic order):
   Daniel Aravena         : Magnetic Suceptibility
   Michael Atanasov       : Ab Initio Ligand Field Theory (pilot matlab implementation)
   Alexander A. Auer      : GIAO ZORA, VPT2 properties, NMR spectrum
   Ute Becker             : Parallelization
   Giovanni Bistoni       : ED, misc. LED, open-shell LED, HFLD
   Martin Brehm           : Molecular dynamics
   Dmytro Bykov           : SCF Hessian
   Vijay G. Chilkuri      : MRCI spin determinant printing, contributions to CSF-ICE
   Dipayan Datta          : RHF DLPNO-CCSD density
   Achintya Kumar Dutta   : EOM-CC, STEOM-CC
   Dmitry Ganyushin       : Spin-Orbit,Spin-Spin,Magnetic field MRCI
   Miquel Garcia          : C-PCM and meta-GGA Hessian, CC/C-PCM, Gaussian charge scheme
   Yang Guo               : DLPNO-NEVPT2, F12-NEVPT2, CIM, IAO-localization
   Andreas Hansen         : Spin unrestricted coupled pair/coupled cluster methods
   Benjamin Helmich-Paris : MC-RPA, TRAH-SCF, COSX integrals
   Lee Huntington         : MR-EOM, pCC
   Robert Izsak           : Overlap fitted RIJCOSX, COSX-SCS-MP3, EOM
   Marcus Kettner         : VPT2
   Christian Kollmar      : KDIIS, OOCD, Brueckner-CCSD(T), CCSD density, CASPT2, CASPT2-K
   Simone Kossmann        : Meta GGA functionals, TD-DFT gradient, OOMP2, MP2 Hessian
   Martin Krupicka        : Initial AUTO-CI
   Lucas Lang             : DCDCAS
   Marvin Lechner         : AUTO-CI (C++ implementation), FIC-MRCC
   Dagmar Lenk            : GEPOL surface, SMD
   Dimitrios Liakos       : Extrapolation schemes; Compound Job, initial MDCI parallelization
   Dimitrios Manganas     : Further ROCIS development; embedding schemes
   Dimitrios Pantazis     : SARC Basis sets
   Anastasios Papadopoulos: AUTO-CI, single reference methods and gradients
   Taras Petrenko         : DFT Hessian,TD-DFT gradient, ASA, ECA, R-Raman, ABS, FL, XAS/XES, NRVS
   Peter Pinski           : DLPNO-MP2, DLPNO-MP2 Gradient
   Christoph Reimann      : Effective Core Potentials
   Marius Retegan         : Local ZFS, SOC
   Christoph Riplinger    : Optimizer, TS searches, QM/MM, DLPNO-CCSD(T), (RO)-DLPNO pert. Triples
   Tobias Risthaus        : Range-separated hybrids, TD-DFT gradient, RPA, STAB
   Michael Roemelt        : Original ROCIS implementation
   Masaaki Saitow         : Open-shell DLPNO-CCSD energy and density
   Barbara Sandhoefer     : DKH picture change effects
   Avijit Sen             : IP-ROCIS
   Kantharuban Sivalingam : CASSCF convergence, NEVPT2, FIC-MRCI
   Bernardo de Souza      : ESD, SOC TD-DFT
   Georgi Stoychev        : AutoAux, RI-MP2 NMR, DLPNO-MP2 response
   Willem Van den Heuvel  : Paramagnetic NMR
   Boris Wezisla          : Elementary symmetry handling
   Frank Wennmohs         : Technical directorship


 We gratefully acknowledge several colleagues who have allowed us to
 interface, adapt or use parts of their codes:
   Stefan Grimme, W. Hujo, H. Kruse, P. Pracht,  : VdW corrections, initial TS optimization,
                  C. Bannwarth, S. Ehlert          DFT functionals, gCP, sTDA/sTD-DF
   Ed Valeev, F. Pavosevic, A. Kumar             : LibInt (2-el integral package), F12 methods
   Garnet Chan, S. Sharma, J. Yang, R. Olivares  : DMRG
   Ulf Ekstrom                                   : XCFun DFT Library
   Mihaly Kallay                                 : mrcc  (arbitrary order and MRCC methods)
   Jiri Pittner, Ondrej Demel                    : Mk-CCSD
   Frank Weinhold                                : gennbo (NPA and NBO analysis)
   Christopher J. Cramer and Donald G. Truhlar   : smd solvation model
   Lars Goerigk                                  : TD-DFT with DH, B97 family of functionals
   V. Asgeirsson, H. Jonsson                     : NEB implementation
   FAccTs GmbH                                   : IRC, NEB, NEB-TS, DLPNO-Multilevel, CI-OPT
                                                   MM, QMMM, 2- and 3-layer-ONIOM, Crystal-QMMM,
                                                   LR-CPCM, SF, NACMEs, symmetry and pop. for TD-DFT,
                                                   nearIR, NL-DFT gradient (VV10), updates on ESD,
                                                   ML-optimized integration grids
   S Lehtola, MJT Oliveira, MAL Marques          : LibXC Library
   Liviu Ungur et al                             : ANISO software


 Your calculation uses the libint2 library for the computation of 2-el integrals
 For citations please refer to: http://libint.valeyev.net

 Your ORCA version has been built with support for libXC version: 5.1.0
 For citations please refer to: https://tddft.org/programs/libxc/

 This ORCA versions uses:
   CBLAS   interface :  Fast vector & matrix operations
   LAPACKE interface :  Fast linear algebra routines
   SCALAPACK package :  Parallel linear algebra routines
   Shared memory     :  Shared parallel matrices
   BLAS/LAPACK       :  OpenBLAS 0.3.15  USE64BITINT DYNAMIC_ARCH NO_AFFINITY Zen SINGLE_THREADED
        Core in use  :  Zen
   Copyright (c) 2011-2014, The OpenBLAS Project




***************************************
The coordinates will be read from file: inp.xyz
***************************************


Your calculation utilizes the geometrical counterpoise correction gCP
Please cite in your paper:
H.Kruse, S. Grimme J.Chem.Phys., 136, (2012), 154101 
   

Your calculation utilizes the atom-pairwise dispersion correction
based on tight binding partial charges (D4)
Cite in your paper:
E.Caldeweyher, C.Bannwarth, S.Grimme, J.Chem.Phys., (2017), 147, 034112.
E.Caldeweyher, S.Ehlert, A.Hansen, H.Neugebauer, S.Grimme, J.Chem.Phys., (2018), in progress.
   

================================================================================

----- Orbital basis set information -----
Your calculation utilizes the basis: def2-mTZVPP
   Stefan Grimme, Andreas Hansen, Sebastian Ehlert, and Jan-Michael Mewes 
   J. Chem. Phys. 154, 000000 (2021). DOI: 10.1063/5.0040021

----- AuxJ basis set information -----
Your calculation utilizes the basis: def2-mTZVPP/J
   Stefan Grimme, Andreas Hansen, Sebastian Ehlert, and Jan-Michael Mewes 
   J. Chem. Phys. 154, 000000 (2021). DOI: 10.1063/5.0040021

================================================================================
                                        WARNINGS
                       Please study these warnings very carefully!
================================================================================

WARNING: Old DensityContainer found on disk!
         Will remove this file - 
         If you want to keep old densities, please start your calculation with a different basename. 

Using LibXC functional ID 497 : Re-regularized SCAN exchange by Furness et al
[ 1]  J. W. Furness, A. D. Kaplan, J. Ning, J. P. Perdew, and J. Sun, J. Phys. Chem. Lett. 11, 8208 (2020)
[ 2]  J. W. Furness, A. D. Kaplan, J. Ning, J. P. Perdew, and J. Sun, J. Phys. Chem. Lett. 11, 9248 (2020)
Using LibXC functional ID 498 : Re-regularized SCAN correlation by Furness et al
[ 1]  J. W. Furness, A. D. Kaplan, J. Ning, J. P. Perdew, and J. Sun, J. Phys. Chem. Lett. 11, 8208 (2020)
[ 2]  J. W. Furness, A. D. Kaplan, J. Ning, J. P. Perdew, and J. Sun, J. Phys. Chem. Lett. 11, 9248 (2020)
Using LibXC functional ID 497 : Re-regularized SCAN exchange by Furness et al
[ 1]  J. W. Furness, A. D. Kaplan, J. Ning, J. P. Perdew, and J. Sun, J. Phys. Chem. Lett. 11, 8208 (2020)
[ 2]  J. W. Furness, A. D. Kaplan, J. Ning, J. P. Perdew, and J. Sun, J. Phys. Chem. Lett. 11, 9248 (2020)
Using LibXC functional ID 498 : Re-regularized SCAN correlation by Furness et al
[ 1]  J. W. Furness, A. D. Kaplan, J. Ning, J. P. Perdew, and J. Sun, J. Phys. Chem. Lett. 11, 8208 (2020)
[ 2]  J. W. Furness, A. D. Kaplan, J. Ning, J. P. Perdew, and J. Sun, J. Phys. Chem. Lett. 11, 9248 (2020)

WARNING: Geometry Optimization
  ===> : Switching off AutoStart
         For restart on a previous wavefunction, please use MOREAD

INFO   : the flag for use of the SHARK integral package has been found!

================================================================================
                                       INPUT FILE
================================================================================
NAME = inp
|  1> !r2scan-3c Opt D4 Freq TightOpt
|  2> %pal
|  3>  nprocs 32
|  4> end
|  5> * xyzfile 0 1 inp.xyz
|  6> 
|  7> 
|  8>                          ****END OF INPUT****
================================================================================

                       *****************************
                       * Geometry Optimization Run *
                       *****************************

Geometry optimization settings:
Update method            Update   .... BFGS
Choice of coordinates    CoordSys .... Z-matrix Internals
Initial Hessian          InHess   .... Almoef's Model

Convergence Tolerances:
Energy Change            TolE     ....  1.0000e-06 Eh
Max. Gradient            TolMAXG  ....  1.0000e-04 Eh/bohr
RMS Gradient             TolRMSG  ....  3.0000e-05 Eh/bohr
Max. Displacement        TolMAXD  ....  1.0000e-03 bohr
RMS Displacement         TolRMSD  ....  6.0000e-04 bohr
Strict Convergence                ....  False
------------------------------------------------------------------------------
                        ORCA OPTIMIZATION COORDINATE SETUP
------------------------------------------------------------------------------

The optimization will be done in new redundant internal coordinates
Making redundant internal coordinates   ...  (new redundants) done
Evaluating the initial hessian          ...  (Almloef) done
Evaluating the coordinates              ...  done
Calculating the B-matrix                .... done
Calculating the G-matrix                .... done
Diagonalizing the G-matrix              .... done
Small eigenvalue found = 1.798e-02
Small eigenvalue found = 2.392e-02
The first mode is                       ....   13
The number of degrees of freedom        ....   36

    -----------------------------------------------------------------
                    Redundant Internal Coordinates


    -----------------------------------------------------------------
         Definition                    Initial Value    Approx d2E/dq
    -----------------------------------------------------------------
      1. B(C   1,C   0)                  1.4985         0.419339   
      2. B(H   2,C   0)                  1.0934         0.355690   
      3. B(H   3,C   0)                  1.0958         0.352510   
      4. B(H   4,C   0)                  1.0892         0.361128   
      5. B(C   6,O   5)                  1.4208         0.499779   
      6. B(H   7,C   6)                  1.1006         0.346363   
      7. B(H   8,C   6)                  1.0933         0.355721   
      8. B(H   9,C   6)                  1.1007         0.346184   
      9. B(O  10,C   1)                  1.2049         1.104484   
     10. B(O  11,C   1)                  1.3673         0.608330   
     11. B(H  12,O  11)                  0.9706         0.500120   
     12. B(H  13,O  11)                  2.0908         0.008162   
     13. B(H  13,O   5)                  0.9647         0.511099   
     14. A(C   1,C   0,H   3)          108.8747         0.329393   
     15. A(H   2,C   0,H   4)          110.9252         0.290407   
     16. A(C   1,C   0,H   4)          109.8361         0.330711   
     17. A(C   1,C   0,H   2)          110.6501         0.329882   
     18. A(H   3,C   0,H   4)          109.6340         0.289998   
     19. A(H   2,C   0,H   3)          106.8520         0.289309   
     20. A(C   0,C   1,O  10)          127.1248         0.445972   
     21. A(O  10,C   1,O  11)          122.0862         0.474137   
     22. A(C   0,C   1,O  11)          110.7800         0.400895   
     23. A(C   6,O   5,H  13)          107.8652         0.355691   
     24. A(O   5,C   6,H   7)          112.1809         0.336089   
     25. A(H   8,C   6,H   9)          108.1356         0.288494   
     26. A(H   7,C   6,H   9)          108.6578         0.287294   
     27. A(O   5,C   6,H   9)          112.0693         0.336060   
     28. A(H   7,C   6,H   8)          108.2240         0.288517   
     29. A(O   5,C   6,H   8)          107.4219         0.337585   
     30. A(H  12,O  11,H  13)          124.9739         0.179131   
     31. A(C   1,O  11,H  13)          124.2795         0.198312   
     32. A(C   1,O  11,H  12)          107.7740         0.366456   
     33. L(O   5,H  13,O  11,C   6, 2) 175.9203         0.179575   
     34. L(O   5,H  13,O  11,C   6, 1) 176.1775         0.179575   
     35. D(O  11,C   1,C   0,H   2)     48.9955         0.013004   
     36. D(O  10,C   1,C   0,H   3)    110.7633         0.013004   
     37. D(O  11,C   1,C   0,H   3)    -68.1503         0.013004   
     38. D(O  10,C   1,C   0,H   2)   -132.0908         0.013004   
     39. D(O  10,C   1,C   0,H   4)     -9.2916         0.013004   
     40. D(O  11,C   1,C   0,H   4)    171.7947         0.013004   
     41. D(H   9,C   6,O   5,H  13)     62.0450         0.019746   
     42. D(H   8,C   6,O   5,H  13)   -179.3185         0.019746   
     43. D(H   7,C   6,O   5,H  13)    -60.5089         0.019746   
     44. D(C   1,O  11,O   5,C   6)    110.6135         0.001500   
     45. D(H  13,O  11,C   1,O  10)   -162.7843         0.029879   
     46. D(H  13,O  11,C   1,C   0)     16.1934         0.029879   
     47. D(H  12,O  11,C   1,O  10)     -1.5259         0.029879   
     48. D(H  12,O  11,O   5,C   6)    -45.4252         0.001500   
     49. D(H  12,O  11,C   1,C   0)    177.4518         0.029879   
    -----------------------------------------------------------------

Number of atoms                         .... 14
Number of degrees of freedom            .... 49

         *************************************************************
         *                GEOMETRY OPTIMIZATION CYCLE   1            *
         *************************************************************
---------------------------------
CARTESIAN COORDINATES (ANGSTROEM)
---------------------------------
  C     -3.191799   -0.079654   -0.116414
  C     -2.490417    1.097629    0.489968
  H     -3.203823   -0.922164    0.580334
  H     -2.634516   -0.407123   -1.001273
  H     -4.203935    0.201307   -0.404596
  O      0.153107   -1.872172    0.312263
  C      1.297729   -1.474646   -0.429635
  H      1.030693   -0.899320   -1.329071
  H      1.814553   -2.384461   -0.746655
  H      1.996172   -0.877210    0.176046
  O     -2.875052    2.239218    0.515679
  O     -1.287703    0.724288    1.022438
  H     -0.854748    1.522560    1.365007
  H     -0.313970   -1.073792    0.586179

----------------------------
CARTESIAN COORDINATES (A.U.)
----------------------------
  NO LB      ZA    FRAG     MASS         X           Y           Z
   0 C     6.0000    0    12.011   -6.031625   -0.150525   -0.219990
   1 C     6.0000    0    12.011   -4.706206    2.074218    0.925905
   2 H     1.0000    0     1.008   -6.054349   -1.742637    1.096672
   3 H     1.0000    0     1.008   -4.978514   -0.769351   -1.892132
   4 H     1.0000    0     1.008   -7.944286    0.380415   -0.764575
   5 O     8.0000    0    15.999    0.289331   -3.537892    0.590091
   6 C     6.0000    0    12.011    2.452352   -2.786677   -0.811893
   7 H     1.0000    0     1.008    1.947727   -1.699468   -2.511580
   8 H     1.0000    0     1.008    3.429007   -4.505978   -1.410973
   9 H     1.0000    0     1.008    3.772219   -1.657687    0.332679
  10 O     8.0000    0    15.999   -5.433061    4.231509    0.974493
  11 O     8.0000    0    15.999   -2.433407    1.368707    1.932128
  12 H     1.0000    0     1.008   -1.615240    2.877221    2.579489
  13 H     1.0000    0     1.008   -0.593317   -2.029172    1.107718

--------------------------------
INTERNAL COORDINATES (ANGSTROEM)
--------------------------------
 C      0   0   0     0.000000000000     0.00000000     0.00000000
 C      1   0   0     1.498542779533     0.00000000     0.00000000
 H      1   2   0     1.093354539913   110.65008614     0.00000000
 H      1   2   3     1.095798910255   108.87466175   242.85413502
 H      1   2   3     1.089223680605   109.83606199   122.79914364
 O      4   1   2     3.412124081366   103.47010522    72.53385752
 C      6   4   1     1.420773801065   109.69599059   223.03393750
 H      7   6   4     1.100587778691   112.18087525   352.57704520
 H      7   6   4     1.093330215377   107.42189817   233.76745006
 H      7   6   4     1.100728492158   112.06929887   115.13098170
 O      2   1   3     1.204919625954   127.12475803   227.90920881
 O      2   1   3     1.367270180175   110.77998057    48.99552344
 H     12   2   1     0.970588138132   107.77401634   177.45176390
 H      6   4   1     0.964677174553    50.08849489   320.23627884

---------------------------
INTERNAL COORDINATES (A.U.)
---------------------------
 C      0   0   0     0.000000000000     0.00000000     0.00000000
 C      1   0   0     2.831835453282     0.00000000     0.00000000
 H      1   2   0     2.066140647715   110.65008614     0.00000000
 H      1   2   3     2.070759838231   108.87466175   242.85413502
 H      1   2   3     2.058334454925   109.83606199   122.79914364
 O      4   1   2     6.447980048739   103.47010522    72.53385752
 C      6   4   1     2.684873382264   109.69599059   223.03393750
 H      7   6   4     2.079809488066   112.18087525   352.57704520
 H      7   6   4     2.066094681004   107.42189817   233.76745006
 H      7   6   4     2.080075397983   112.06929887   115.13098170
 O      2   1   3     2.276968106439   127.12475803   227.90920881
 O      2   1   3     2.583766191608   110.77998057    48.99552344
 H     12   2   1     1.834145769903   107.77401634   177.45176390
 H      6   4   1     1.822975667550    50.08849489   320.23627884

---------------------
BASIS SET INFORMATION
---------------------
There are 3 groups of distinct atoms

 Group   1 Type C   : 11s6p1d contracted to 5s3p1d pattern {62111/411/1}
 Group   2 Type H   : 4s1p contracted to 2s1p pattern {31/1}
 Group   3 Type O   : 11s6p2d contracted to 5s3p2d pattern {62111/411/11}

Atom   0C    basis set group =>   1
Atom   1C    basis set group =>   1
Atom   2H    basis set group =>   2
Atom   3H    basis set group =>   2
Atom   4H    basis set group =>   2
Atom   5O    basis set group =>   3
Atom   6C    basis set group =>   1
Atom   7H    basis set group =>   2
Atom   8H    basis set group =>   2
Atom   9H    basis set group =>   2
Atom  10O    basis set group =>   3
Atom  11O    basis set group =>   3
Atom  12H    basis set group =>   2
Atom  13H    basis set group =>   2
---------------------------------
AUXILIARY/J BASIS SET INFORMATION
---------------------------------
There are 3 groups of distinct atoms

 Group   1 Type C   : 8s3p3d contracted to 6s3p3d pattern {311111/111/111}
 Group   2 Type H   : 5s2p1d contracted to 3s1p1d pattern {311/2/1}
 Group   3 Type O   : 8s3p3d contracted to 6s3p3d pattern {311111/111/111}

Atom   0C    basis set group =>   1
Atom   1C    basis set group =>   1
Atom   2H    basis set group =>   2
Atom   3H    basis set group =>   2
Atom   4H    basis set group =>   2
Atom   5O    basis set group =>   3
Atom   6C    basis set group =>   1
Atom   7H    basis set group =>   2
Atom   8H    basis set group =>   2
Atom   9H    basis set group =>   2
Atom  10O    basis set group =>   3
Atom  11O    basis set group =>   3
Atom  12H    basis set group =>   2
Atom  13H    basis set group =>   2
--------------------------------------------------------------------------
mpirun was unable to find the specified executable file, and therefore
did not launch the job.  This error was first reported for process
rank 0; it may have occurred for other processes as well.

NOTE: A common cause for this error is misspelling a mpirun command
      line parameter option (remember that mpirun interprets the first
      unrecognized command line token as the executable).

Node:       barbo
Executable: log
--------------------------------------------------------------------------
32 total processes failed to start

ORCA finished by error termination in GTOInt
Calling Command: mpirun -np 32 log /home/salvador/software/orca/orca_gtoint_mpi inp.int.tmp inp 
[file orca_tools/qcmsg.cpp, line 465]: 
  .... aborting the run

[file orca_tools/qcmsg.cpp, line 465]: 
  .... aborting the run

