14
 ORCA AIMD Position Step 0, t=0.00 fs, E_Pot=-344.76759707 Hartree, Unit is Angstrom
 C     -3.9114523289     -0.2818403692     -0.0765575148
 C     -2.5489168054      0.3087078962      0.1482375731
 H     -4.0332148700     -1.1794825636      0.5368188388
 H     -4.0162257505     -0.5860294283     -1.1222623701
 H     -4.6742259939      0.4529770968      0.1780603353
 O     -1.5818928674     -0.5741872846     -0.1503564927
 C     -0.2224597371     -0.1078678348      0.0292755029
 H     -0.0273656062      0.7586234495     -0.6076410482
 H      0.4089844263     -0.9480761755     -0.2585682175
 H     -0.0467811200      0.1685429311      1.0720145197
 O     -2.3403990277      1.4369962923      0.5476104917
 O      0.1361515449      2.9180527589      1.1050910438
 H     -0.0626911737      3.8052074738      1.4160042219
 H     -0.7326007961      2.5149757961      0.9538731328
14
 ORCA AIMD Position Step 1, t=0.50 fs, E_Pot=-344.76710999 Hartree, Unit is Angstrom
 C     -3.9095065344     -0.2820167839     -0.0755960896
 C     -2.5500363500      0.3140426407      0.1535186481
 H     -4.0238312918     -1.1796752638      0.5375061619
 H     -4.0042543397     -0.5972711618     -1.1142267776
 H     -4.6836592573      0.4604315452      0.1731525659
 O     -1.5844434514     -0.5723153831     -0.1516218613
 C     -0.2217911035     -0.1096945008      0.0279243681
 H     -0.0200972105      0.7529986405     -0.6089006539
 H      0.3978039316     -0.9442474106     -0.2585569627
 H     -0.0440518507      0.1516636177      1.0679302149
 O     -2.3396718097      1.4361248812      0.5451598211
 O      0.1362122213      2.9163500140      1.1054154867
 H     -0.0514432071      3.8003472551      1.4176391817
 H     -0.7444227531      2.5139385379      0.9493032611
14
 ORCA AIMD Position Step 2, t=1.00 fs, E_Pot=-344.76579920 Hartree, Unit is Angstrom
 C     -3.9076045048     -0.2821359901     -0.0745910700
 C     -2.5511643706      0.3192679605      0.1587433417
 H     -4.0145539671     -1.1798572757      0.5383341880
 H     -3.9923327686     -0.6085122432     -1.1065554952
 H     -4.6924957033      0.4671947476      0.1680467470
 O     -1.5869911107     -0.5704358397     -0.1528834162
 C     -0.2211775999     -0.1114998482      0.0265636490
 H     -0.0128526043      0.7475407229     -0.6101656054
 H      0.3871768413     -0.9411801244     -0.2588486265
 H     -0.0412642398      0.1350358020      1.0642668634
 O     -2.3389323809      1.4353351619      0.5427416672
 O      0.1362147175      2.9145748895      1.1057138468
 H     -0.0403839341      3.7960289959      1.4194664943
 H     -0.7551220950      2.5134813843      0.9449539248
14
 ORCA AIMD Position Step 3, t=1.50 fs, E_Pot=-344.76404171 Hartree, Unit is Angstrom
 C     -3.9057819748     -0.2821489877     -0.0735035384
 C     -2.5523120646      0.3242776762      0.1638610358
 H     -4.0054769944     -1.1800129425      0.5394369080
 H     -3.9804898342     -0.6197596586     -1.0995650260
 H     -4.7002272830      0.4726703603      0.1625769883
 O     -1.5895353402     -0.5685391598     -0.1541388326
 C     -0.2206711810     -0.1132641922      0.0251838281
 H     -0.0056471167      0.7424008135     -0.6114354227
 H      0.3776164889     -0.9396125259     -0.2597429967
 H     -0.0383607587      0.1188734278      1.0614096173
 O     -2.3381669113      1.4347104612      0.5403858044
 O      0.1361113119      2.9126645749      1.1059635004
 H     -0.0296599635      3.7927135367      1.4216553476
 H     -0.7637846813      2.5140747557      0.9410209216
14
 ORCA AIMD Position Step 4, t=2.00 fs, E_Pot=-344.76230365 Hartree, Unit is Angstrom
 C     -3.9040646639     -0.2820180083     -0.0723017105
 C     -2.5534925153      0.3289714778      0.1688264248
 H     -3.9966833115     -1.1801234995      0.5409397280
 H     -3.9687353508     -0.6310182518     -1.0935035784
 H     -4.7064630114      0.4763846173      0.1566179598
 O     -1.5920769932     -0.5666143835     -0.1553867213
 C     -0.2203152758     -0.1149740310      0.0237764006
 H      0.0015065993      0.7376987858     -0.6126965455
 H      0.3695370891     -0.9401720085     -0.2615050309
 H     -0.0352929777      0.1033437225      1.0596614646
 O     -2.3373606700      1.4343329499      0.5381192015
 O      0.1358688931      2.9105719691      1.1061479322
 H     -0.0193686166      3.7907191728      1.4243283887
 H     -0.7697762912      2.5160542512      0.9376526394
14
 ORCA AIMD Position Step 5, t=2.50 fs, E_Pot=-344.76096642 Hartree, Unit is Angstrom
 C     -3.9024701958     -0.2817197494     -0.0709635273
 C     -2.5547203282      0.3332541336      0.1735989740
 H     -3.9882505970     -1.1801468564      0.5429460506
 H     -3.9570662062     -0.6422718442     -1.0885137516
 H     -4.7109218041      0.4779779916      0.1500813271
 O     -1.5946174983     -0.5646511580     -0.1566269492
 C     -0.2201419250     -0.1166269783      0.0223344758
 H      0.0086014908      0.7335484787     -0.6139363673
 H      0.3632301869     -0.9433274269     -0.2643470629
 H     -0.0320208779      0.0885772734      1.0592463817
 O     -2.3364982210      1.4342842941      0.5359666402
 O      0.1354664187      2.9082715965      1.1062588275
 H     -0.0095493232      3.7901288165      1.4275266266
 H     -0.7727110477      2.5196351228      0.9349501272
14
 ORCA AIMD Position Step 6, t=3.00 fs, E_Pot=-344.76022941 Hartree, Unit is Angstrom
 C     -3.9010073462     -0.2812457294     -0.0694782171
 C     -2.5560086703      0.3370372025      0.1781392264
 H     -3.9802577153     -1.1800334831      0.5455421503
 H     -3.9454781684     -0.6534729391     -1.0846417986
 H     -4.7134493072      0.4772250556      0.1429258443
 O     -1.5971559225     -0.5626405872     -0.1578587978
 C     -0.2201663434     -0.1182349500      0.0208541843
 H      0.0156191525      0.7300283200     -0.6151219066
 H      0.3588061080     -0.9492914236     -0.2683912637
 H     -0.0285283012      0.0746699192      1.0602502147
 O     -2.3355653156      1.4346405511      0.5339514834
 O      0.1348995354      2.9057620472      1.1062965362
 H     -0.0002011987      3.7908044164      1.4312088379
 H     -0.7725067443      2.5248909513      0.9329593140
14
 ORCA AIMD Position Step 7, t=3.50 fs, E_Pot=-344.76005069 Hartree, Unit is Angstrom
 C     -3.8996771960     -0.2806042087     -0.0678479964
 C     -2.5573671978      0.3402405798      0.1824065494
 H     -3.9727907837     -1.1797197496      0.5487873803
 H     -3.9339786165     -0.6645279732     -1.0818275560
 H     -4.7140190202      0.4740377997      0.1351604794
 O     -1.5996869313     -0.5605774829     -0.1590801125
 C     -0.2203854381     -0.1198254556      0.0193357292
 H      0.0225253326      0.7271883286     -0.6162039265
 H      0.3561854573     -0.9579855945     -0.2736533417
 H     -0.0248266907      0.0616954502      1.0626154918
 O     -2.3345503589      1.4354688632      0.5320964881
 O      0.1341819095      2.9030673936      1.1062702153
 H      0.0087018394      3.7923962364      1.4352503396
 H     -0.7693919044      2.5317506893      0.9316677620
14
 ORCA AIMD Position Step 8, t=4.00 fs, E_Pot=-344.76018905 Hartree, Unit is Angstrom
 C     -3.8984722396     -0.2798213420     -0.0660880563
 C     -2.5587998817      0.3427982964      0.1863598803
 H     -3.9659422065     -1.1791302998      0.5527100572
 H     -3.9225929727     -0.6752967325     -1.0799093638
 H     -4.7127451788      0.4684806001      0.1268467086
 O     -1.6022004130     -0.5584609536     -0.1602869297
 C     -0.2207780012     -0.1214407396      0.0177835846
 H      0.0292665149      0.7250435867     -0.6171162514
 H      0.3551054732     -0.9690358888     -0.2800371652
 H     -0.0209582570      0.0497091362      1.0661362239
 O     -2.3334457294      1.4368227814      0.5304231313
 O      0.1333474982      2.9002346493      1.1061971990
 H      0.0171956067      3.7943942557      1.4394589308
 H     -0.7639270528      2.5399907840      0.9309979680
14
 ORCA AIMD Position Step 9, t=4.50 fs, E_Pot=-344.76031528 Hartree, Unit is Angstrom
 C     -3.8973743443     -0.2789397121     -0.0642234905
 C     -2.5603062096      0.3446682910      0.1899668472
 H     -3.9598012490     -1.1781825983      0.5573104458
 H     -3.9113523328     -0.6856133578     -1.0786391755
 H     -4.7098909174      0.4607725818      0.1180853481
 O     -1.6046841568     -0.5562929143     -0.1614755385
 C     -0.2213081637     -0.1231336596      0.0162053166
 H      0.0357791433      0.7235710097     -0.6177772796
 H      0.3551611306     -0.9818379518     -0.2873573205
 H     -0.0169890319      0.0387370147      1.0704824094
 O     -2.3322475754      1.4387371605      0.5289469095
 O      0.1324489828      2.8973260986      1.1061013060
 H      0.0253293792      3.7962019602      1.4436071306
 H     -0.7569840322      2.5492599499      0.9308029453
14
 ORCA AIMD Position Step 10, t=5.00 fs, E_Pot=-344.76016076 Hartree, Unit is Angstrom
 C     -3.8963539069     -0.2780174355     -0.0622859931
 C     -2.5618784484      0.3458393244      0.1932044502
 H     -3.9544492929     -1.1767943760      0.5625658197
 H     -3.9002951960     -0.6953016412     -1.0777137446
 H     -4.7058688087      0.4512880014      0.1090116213
 O     -1.6071264840     -0.5540772004     -0.1626423553
 C     -0.2219309878     -0.1249634735      0.0146098822
 H      0.0419929624      0.7227186739     -0.6181026001
 H      0.3558663336     -0.9956464350     -0.2953692532
 H     -0.0130023286      0.0287797287      1.0752441935
 O     -2.3309562119      1.4412265600      0.5276772901
 O      0.1315574375      2.8944097084      1.1060101970
 H      0.0331479015      3.7972420843      1.4474702142
 H     -0.7497242752      2.5590921810      0.9308713770
14
 ORCA AIMD Position Step 11, t=5.50 fs, E_Pot=-344.75962807 Hartree, Unit is Angstrom
 C     -3.8953696502     -0.2771231870     -0.0603088822
 C     -2.5635045436      0.3463266220      0.1960621678
 H     -3.9499531098     -1.1748870243      0.5684377492
 H     -3.8894546058     -0.7041979066     -1.0768041339
 H     -4.7012282647      0.4405325949      0.0997767242
 O     -1.6095164956     -0.5518164040     -0.1637851051
 C     -0.2225986351     -0.1269899361      0.0130061419
 H      0.0478346481      0.7223860186     -0.6179904874
 H      0.3567012765     -1.0096584221     -0.3038009518
 H     -0.0090911541      0.0198051430      1.0799506283
 O     -2.3295751644      1.4442884716      0.5266162577
 O      0.1307536638      2.8915495114      1.1059523441
 H      0.0406995801      3.7970222475      1.4508564777
 H     -0.7434658505      2.5689751466      0.9309477521
14
 ORCA AIMD Position Step 12, t=6.00 fs, E_Pot=-344.75884608 Hartree, Unit is Angstrom
 C     -3.8943710113     -0.2763334384     -0.0583242322
 C     -2.5651665217      0.3461749589      0.1985412537
 H     -3.9463678801     -1.1723920796      0.5748806589
 H     -3.8788621588     -0.7121617339     -1.0755902004
 H     -4.6966250609      0.4291140030      0.0905380425
 O     -1.6118463430     -0.5495129114     -0.1649028386
 C     -0.2232655054     -0.1292685420      0.0114016146
 H      0.0532333201      0.7224580654     -0.6173452423
 H      0.3571808863     -1.0231160071     -0.3123896858
 H     -0.0053476918      0.0117641182      1.0841437283
 O     -2.3281110785      1.4479033154      0.5257590496
 O      0.1301189252      2.8887963304      1.1059531123
 H      0.0480259144      3.7952073804      1.4536347023
 H     -0.7395284908      2.5784145343      0.9307664830
14
 ORCA AIMD Position Step 13, t=6.50 fs, E_Pot=-344.75809829 Hartree, Unit is Angstrom
 C     -3.8933017848     -0.2757272389     -0.0563603110
 C     -2.5668412259      0.3454534799      0.2006524726
 H     -3.9437387916     -1.1692576644      0.5818477787
 H     -3.8685488205     -0.7190851071     -1.0737880494
 H     -4.6927811183      0.4177017240      0.0814481165
 O     -1.6141100980     -0.5471689245     -0.1659956421
 C     -0.2238908907     -0.1318467350      0.0098020979
 H      0.0581179194      0.7228035529     -0.6160734664
 H      0.3568805175     -1.0353484064     -0.3208977335
 H     -0.0018604387      0.0045966417      1.0873997614
 O     -2.3265737122      1.4520368384      0.5250953924
 O      0.1297204441      2.8861810538      1.1060309675
 H      0.0551609148      3.7916501582      1.4557469628
 H     -0.7390008221      2.5870204671      0.9300992589
14
 ORCA AIMD Position Step 14, t=7.00 fs, E_Pot=-344.75766937 Hartree, Unit is Angstrom
 C     -3.8921063682     -0.2753803835     -0.0544403460
 C     -2.5684998042      0.3442518563      0.2024129983
 H     -3.9421035116     -1.1654552624      0.5892930440
 H     -3.8585504446     -0.7248965111     -1.0711720838
 H     -4.6904221331      0.4069744123      0.0726461612
 O     -1.6163024972     -0.5447878086     -0.1670638374
 C     -0.2244407312     -0.1347606116      0.0082118859
 H      0.0624164639      0.7232859787     -0.6140910539
 H      0.3554564153     -1.0457991526     -0.3291209294
 H      0.0012891463     -0.0017581609      1.0893575517
 O     -2.3249764592      1.4566404814      0.5246110611
 O      0.1295972146      2.8837104237      1.1061938161
 H      0.0621270011      3.7864128522      1.4572162806
 H     -0.7425108949      2.5945747954      0.9288035802
14
 ORCA AIMD Position Step 15, t=7.50 fs, E_Pot=-344.75769052 Hartree, Unit is Angstrom
 C     -3.8907387119     -0.2753582536     -0.0525819329
 C     -2.5701067150      0.3426771155      0.2038436889
 H     -3.9414926607     -1.1609869686      0.5971694817
 H     -3.8489139204     -0.7295646065     -1.0675930590
 H     -4.6901906928      0.3975513796      0.0642500680
 O     -1.6184173442     -0.5423759075     -0.1681070585
 C     -0.2248892129     -0.1380318221      0.0066342499
 H      0.0660576468      0.7237758562     -0.6113336112
 H      0.3526602868     -1.0540420626     -0.3368919756
 H      0.0040306767     -0.0073544431      1.0897443734
 O     -2.3233370389      1.4616508232      0.5242893073
 O      0.1297503784      2.8813662026      1.1064364259
 H      0.0689309381      3.7797784638      1.4581495804
 H     -0.7500704274      2.6010619361      0.9268586057
14
 ORCA AIMD Position Step 16, t=8.00 fs, E_Pot=-344.75808591 Hartree, Unit is Angstrom
 C     -3.8891712989     -0.2757071135     -0.0507957808
 C     -2.5716210194      0.3408505211      0.2049683738
 H     -3.9419263860     -1.1558919406      0.6054300488
 H     -3.8396966748     -0.7331062796     -1.0629942972
 H     -4.6925448059      0.3899125211      0.0563461900
 O     -1.6204470386     -0.5399433439     -0.1691240252
 C     -0.2252190450     -0.1416652375      0.0050715666
 H      0.0689730957      0.7241558521     -0.6077622979
 H      0.3483462565     -1.0597932272     -0.3440839545
 H      0.0063075470     -0.0122394020      1.0883920967
 O     -2.3216774237      1.4669899285      0.5241113801
 O      0.1301411913      2.8791082095      1.1067402728
 H      0.0755653055      3.7722310575      1.4587305037
 H     -0.7610442314      2.6066543831      0.9243737303
14
 ORCA AIMD Position Step 17, t=8.50 fs, E_Pot=-344.75863936 Hartree, Unit is Angstrom
 C     -3.8874026409     -0.2764470221     -0.0490839922
 C     -2.5729984696      0.3389024807      0.2058138066
 H     -3.9434105389     -1.1502454614      0.6140312652
 H     -3.8309596765     -0.7355943984     -1.0574188649
 H     -4.6976646640      0.3843222212      0.0489789544
 O     -1.6223836384     -0.5375030212     -0.1701129520
 C     -0.2254229102     -0.1456493543      0.0035244952
 H      0.0711051882      0.7243314103     -0.6033712646
 H      0.3424781715     -1.0629304136     -0.3506201643
 H      0.0080834972     -0.0164562811      1.0852556138
 O     -2.3200224062      1.4725699278      0.5240570541
 O      0.1306991069      2.8768804534      1.1070762871
 H      0.0820149286      3.7644054147      1.4592021755
 H     -0.7742850814      2.6116528922      0.9215629934
14
 ORCA AIMD Position Step 18, t=9.00 fs, E_Pot=-344.75911278 Hartree, Unit is Angstrom
 C     -3.8854601423     -0.2775689259     -0.0474388988
 C     -2.5741947106      0.3369659723      0.2064094435
 H     -3.9459351920     -1.1441511690      0.6229380385
 H     -3.8227585648     -0.7371606501     -1.0510068416
 H     -4.7054043871      0.3807893450      0.0421474823
 O     -1.6242203305     -0.5350688044     -0.1710722972
 C     -0.2255042344     -0.1499585601      0.0019910740
 H      0.0724133348      0.7242379584     -0.5981897544
 H      0.3351300888     -1.0635059390     -0.3564843598
 H      0.0093473499     -0.0200481093      1.0804194185
 O     -2.3183974539      1.4783000527      0.5241053273
 O      0.1313365409      2.8746199751      1.1074099189
 H      0.0882661956      3.7570018278      1.4598368109
 H     -0.7883767564      2.6164059991      0.9186969959
14
 ORCA AIMD Position Step 19, t=9.50 fs, E_Pot=-344.75933239 Hartree, Unit is Angstrom
 C     -3.8833978943     -0.2790372127     -0.0458434192
 C     -2.5751678185      0.3351705443      0.2067865029
 H     -3.9494759061     -1.1377301029      0.6321254773
 H     -3.8151383685     -0.7379915091     -1.0439842345
 H     -4.7153079686      0.3790809819      0.0358128117
 O     -1.6259520570     -0.5326541906     -0.1720012830
 C     -0.2254775393     -0.1545556623      0.0004664732
 H      0.0728771545      0.7238441386     -0.5922804717
 H      0.3264819377     -1.0617489485     -0.3617272732
 H      0.0101150211     -0.0230595196      1.0740922261
 O     -2.3168268951      1.4840930952      0.5242353733
 O      0.1319642557      2.8722671072      1.1077070874
 H      0.0943149967      3.7506760361      1.4608938750
 H     -0.8018857763      2.6212377817      0.9160520187
14
 ORCA AIMD Position Step 20, t=10.00 fs, E_Pot=-344.75921621 Hartree, Unit is Angstrom
 C     -3.8812895661     -0.2807961325     -0.0442725198
 C     -2.5758797572      0.3336379795      0.2069767078
 H     -3.9539961345     -1.1311107050      0.6415791388
 H     -3.8081309491     -0.7383200200     -1.0366482987
 H     -4.7266824579      0.3787831479      0.0299119615
 O     -1.6275760526     -0.5302711595     -0.1728999764
 C     -0.2253683463     -0.1593939238     -0.0010564634
 H      0.0724973088      0.7231552079     -0.5857375763
 H      0.3168139156     -1.0580617290     -0.3664704119
 H      0.0104291462     -0.0255363594      1.0665964039
 O     -2.3153328170      1.4898689248      0.5244271335
 O      0.1325032757      2.8697743861      1.1079393213
 H      0.1001716663      3.7459353992      1.4625790352
 H     -0.8135547194      2.6264022228      0.9138706873
14
 ORCA AIMD Position Step 21, t=10.50 fs, E_Pot=-344.75876093 Hartree, Unit is Angstrom
 C     -3.8792196637     -0.2827785360     -0.0426956647
 C     -2.5762978490      0.3324795740      0.2070110763
 H     -3.9594495035     -1.1244165032      0.6512886926
 H     -3.8017570773     -0.7384115303     -1.0293425765
 H     -4.7386976010      0.3793801315      0.0243727347
 O     -1.6290910338     -0.5279303240     -0.1737693302
 C     -0.2252123074     -0.1644183448     -0.0025860562
 H      0.0712937855      0.7222083247     -0.5786813731
 H      0.3064963060     -1.0530052851     -0.3709043872
 H      0.0103559330     -0.0275262969      1.0583451431
 O     -2.3139344897      1.4955569522      0.5246620736
 O      0.1328913911      2.8671138384      1.1080877726
 H      0.1058621375      3.7430412779      1.4650033888
 H     -0.8224065932      2.6320652426      0.9123398372
14
 ORCA AIMD Position Step 22, t=11.00 fs, E_Pot=-344.75802031 Hartree, Unit is Angstrom
 C     -3.8772743284     -0.2849142747     -0.0410793802
 C     -2.5763954243      0.3317946947      0.2069189441
 H     -3.9657814706     -1.1177566454      0.6612423553
 H     -3.7960286188     -0.7385478188     -1.0224284745
 H     -4.7504885278      0.3803333898      0.0191250275
 O     -1.6304968756     -0.5256407949     -0.1746110233
 C     -0.2250538737     -0.1695673434     -0.0041304052
 H      0.0693040952      0.7210698340     -0.5712541702
 H      0.2959754901     -1.0472771504     -0.3752839115
 H      0.0099809975     -0.0290793828      1.0498174893
 O     -2.3126481631      1.5010966951      0.5249234594
 O      0.1330862889      2.8642801307      1.1081452030
 H      0.1114259512      3.7419622055      1.4681624212
 H     -0.8277921572      2.6383045733      0.9115804945
14
 ORCA AIMD Position Step 23, t=11.50 fs, E_Pot=-344.75709291 Hartree, Unit is Angstrom
 C     -3.8755337766     -0.2871371543     -0.0393899967
 C     -2.5761524029      0.3316702219      0.2067272623
 H     -3.9729300699     -1.1112185480      0.6714209279
 H     -3.7909516943     -0.7390090667     -1.0162515065
 H     -4.7612400162      0.3811436460      0.0141075836
 O     -1.6317940857     -0.5234103256     -0.1754273089
 C     -0.2249437853     -0.1747751421     -0.0056959990
 H      0.0665801675      0.7198285889     -0.5636142311
 H      0.2857503030     -1.0416718648     -0.3799147591
 H      0.0094028935     -0.0302502230      1.0415244052
 O     -2.3114870999      1.5064376629      0.5251964999
 O      0.1330664312      2.8612900134      1.1081161821
 H      0.1169117116      3.7423786884      1.4719354071
 H     -0.8293988153      2.6451176868      0.9116454055
14
 ORCA AIMD Position Step 24, t=12.00 fs, E_Pot=-344.75611738 Hartree, Unit is Angstrom
 C     -3.8740671409     -0.2893898718     -0.0375964597
 C     -2.5755552769      0.3321803585      0.2064599923
 H     -3.9808260139     -1.1048627205      0.6817922973
 H     -3.7865302794     -0.7400550033     -1.0111052110
 H     -4.7702429554      0.3813908390      0.0092710420
 O     -1.6329836089     -0.5212453473     -0.1762207464
 C     -0.2249359097     -0.1799754799     -0.0072867094
 H      0.0631867979      0.7185928438     -0.5559324962
 H      0.2763403025     -1.0370254517     -0.3851325078
 H      0.0087268169     -0.0311003965      1.0339755221
 O     -2.3104617122      1.5115385007      0.5254683306
 O      0.1328320327      2.8581778938      1.1080155534
 H      0.1223713970      3.7437513926      1.4761110079
 H     -0.8272610010      2.6524293968      0.9125175993
14
 ORCA AIMD Position Step 25, t=12.50 fs, E_Pot=-344.75525631 Hartree, Unit is Angstrom
 C     -3.8729294029     -0.2916266885     -0.0356732883
 C     -2.5745977285      0.3333866310      0.2061378986
 H     -3.9893906372     -1.0987227878      0.6923069214
 H     -3.7827701354     -0.7419070651     -1.0071971810
 H     -4.7769279813      0.3807570617      0.0045789026
 O     -1.6340660983     -0.5191516161     -0.1769939787
 C     -0.2250819132     -0.1851060448     -0.0089031873
 H      0.0591975057      0.7174772569     -0.5483846373
 H      0.2682379857     -1.0341309822     -0.3912655428
 H      0.0080545174     -0.0317036735      1.0276326617
 O     -2.3095799634      1.5163656207      0.5257279444
 O      0.1324045861      2.8549908274      1.1078663649
 H      0.1278548826      3.7454012702      1.4804179251
 H     -0.8217474930      2.6601008702      0.9141117987
14
 ORCA AIMD Position Step 26, t=13.00 fs, E_Pot=-344.75465695 Hartree, Unit is Angstrom
 C     -3.8721598983     -0.2938144039     -0.0336034518
 C     -2.5732807524      0.3353370603      0.2057782930
 H     -3.9985323777     -1.0928078628      0.7028935761
 H     -3.7796820111     -0.7447323855     -1.0046204857
 H     -4.7808816119      0.3790369838      0.0000073872
 O     -1.6350416959     -0.5171347244     -0.1777492662
 C     -0.2254258773     -0.1901136265     -0.0105429965
 H      0.0546940061      0.7165964556     -0.5411479685
 H      0.2618573309     -1.0336439487     -0.3985895178
 H      0.0074765404     -0.0321502172      1.0228723140
 O     -2.3088477416      1.5208911616      0.5259660438
 O      0.1318276267      2.8517825117      1.1076972026
 H      0.1334055917      3.7466162555      1.4845672861
 H     -0.8135717031      2.6679336245      0.9162729057
14
 ORCA AIMD Position Step 27, t=13.50 fs, E_Pot=-344.75440156 Hartree, Unit is Angstrom
 C     -3.8717810837     -0.2959318924     -0.0313808120
 C     -2.5716140055      0.3380640290      0.2053950831
 H     -4.0081418928     -1.0871085465      0.7134573242
 H     -3.7772834298     -0.7486315740     -1.0033361476
 H     -4.7818569018      0.3761437732     -0.0044549945
 O     -1.6359096726     -0.5152008838     -0.1784881236
 C     -0.2259979121     -0.1949587282     -0.0122012615
 H      0.0497642514      0.7160515059     -0.5343945322
 H      0.2574782817     -1.0359804720     -0.4072743336
 H      0.0070628458     -0.0325513889      1.0199448115
 O     -2.3082690815      1.5250913140      0.5261749280
 O      0.1311664233      2.8486080639      1.1075395764
 H      0.1390576294      3.7467470888      1.4882911006
 H     -0.8037864071      2.6756748327      0.9187771587
14
 ORCA AIMD Position Step 28, t=14.00 fs, E_Pot=-344.75448637 Hartree, Unit is Angstrom
 C     -3.8717974968     -0.2979696783     -0.0290113556
 C     -2.5696161563      0.3415814218      0.2049986422
 H     -4.0180898481     -1.0816023483      0.7238814570
 H     -3.7755974995     -0.7536320853     -1.0031681544
 H     -4.7797853857      0.3721137650     -0.0088094418
 O     -1.6366686258     -0.5133569952     -0.1792110150
 C     -0.2268097429     -0.1996196019     -0.0138719209
 H      0.0445026140      0.7159206862     -0.5282845425
 H      0.2552046552     -1.0412407602     -0.4173411010
 H      0.0068574807     -0.0330414913      1.0189472037
 O     -2.3078461324      1.5289460617      0.5263485362
 O      0.1305045297      2.8455193416      1.1074253445
 H      0.1448358854      3.7452775281      1.4913715827
 H     -0.7937315068      2.6830322500      0.9213419345
14
 ORCA AIMD Position Step 29, t=14.50 fs, E_Pot=-344.75484703 Hartree, Unit is Angstrom
 C     -3.8721944507     -0.2999294157     -0.0265125021
 C     -2.5673152152      0.3458821063      0.2045956254
 H     -4.0282287980     -1.0762588561      0.7340357184
 H     -3.7746490871     -0.7596894982     -1.0038154983
 H     -4.7747888326      0.3671098994     -0.0130503715
 O     -1.6373170234     -0.5116100963     -0.1799173717
 C     -0.2278524461     -0.2040939161     -0.0155490940
 H      0.0390067696      0.7162463118     -0.5229550455
 H      0.2549459948     -1.0491799549     -0.4286416472
 H      0.0068745259     -0.0337764282      1.0198070701
 O     -2.3075788132      1.5324406658      0.5264826014
 O      0.1299360159      2.8425591382      1.1073834383
 H      0.1507583905      3.7418854297      1.4936681581
 H     -0.7849133966      2.6897023078      0.9236504530
14
 ORCA AIMD Position Step 30, t=15.00 fs, E_Pot=-344.75540631 Hartree, Unit is Angstrom
 C     -3.8729373220     -0.3018229263     -0.0239105042
 C     -2.5647479470      0.3509353329      0.2041883225
 H     -4.0383993067     -1.0710449353      0.7437889761
 H     -3.7744600979     -0.7666972961     -1.0048823111
 H     -4.7671848941      0.3614209816     -0.0171695850
 O     -1.6378540237     -0.5099660712     -0.1806056948
 C     -0.2290981972     -0.2083968381     -0.0172280078
 H      0.0333746011      0.7170267941     -0.5185104930
 H      0.2564364523     -1.0592468468     -0.4408720167
 H      0.0070991385     -0.0349271389      1.0222915773
 O     -2.3074644475      1.5355685057      0.5265749717
 O      0.1295512714      2.8397553453      1.1074359505
 H      0.1568391122      3.7364781198      1.4951343947
 H     -0.7787796551      2.6954143158      0.9253979177
14
 ORCA AIMD Position Step 31, t=15.50 fs, E_Pot=-344.75607365 Hartree, Unit is Angstrom
 C     -3.8739735501     -0.3036723593     -0.0212371342
 C     -2.5619569142      0.3566927576      0.2037756704
 H     -4.0484389563     -1.0659269127      0.7530211838
 H     -3.7750442218     -0.7745048329     -1.0059146350
 H     -4.7574821667      0.3554562816     -0.0211629576
 O     -1.6382793994     -0.5084298882     -0.1812740798
 C     -0.2305038560     -0.2125559196     -0.0189052901
 H      0.0276970395      0.7182016983     -0.5150090680
 H      0.2592725327     -1.0706612580     -0.4536087572
 H      0.0074898884     -0.0366737465      1.0260235217
 O     -2.3074979448      1.5383312369      0.5266254671
 O      0.1294204938      2.8371156751      1.1075938880
 H      0.1630942570      3.7292171707      1.4958327775
 H     -0.7764643820      2.6999719376      0.9263447367
14
 ORCA AIMD Position Step 32, t=16.00 fs, E_Pot=-344.75670455 Hartree, Unit is Angstrom
 C     -3.8752338105     -0.3055067752     -0.0185256693
 C     -2.5589901422      0.3630846075      0.2033521104
 H     -4.0581897163     -1.0608759671      0.7616352495
 H     -3.7764043713     -0.7829352041     -1.0064486929
 H     -4.7463568546      0.3497282943     -0.0250327097
 O     -1.6385949460     -0.5070039306     -0.1819201719
 C     -0.2320176149     -0.2166036492     -0.0205785618
 H      0.0220596557      0.7196655122     -0.5124676163
 H      0.2629846002     -1.0825433916     -0.4663711186
 H      0.0079894489     -0.0391901973      1.0305406103
 O     -2.3076716454      1.5407413742      0.5266362053
 O      0.1295757576      2.8346257382      1.1078540308
 H      0.1695409070      3.7204978860      1.4959266512
 H     -0.7784954664      2.7032936813      0.9263760176
14
 ORCA AIMD Position Step 33, t=16.50 fs, E_Pot=-344.75708678 Hartree, Unit is Angstrom
 C     -3.8766371692     -0.3073600051     -0.0158073804
 C     -2.5558977471      0.3700247686      0.2029079852
 H     -4.0675066576     -1.0558707957      0.7695665558
 H     -3.7785298809     -0.7918062494     -1.0060509622
 H     -4.7346124455      0.3448258314     -0.0287917842
 O     -1.6388039187     -0.5056881265     -0.1825414603
 C     -0.2335850126     -0.2205713956     -0.0222463128
 H      0.0165388560      0.7212654442     -0.5108585071
 H      0.2670890398     -1.0940127355     -0.4786733698
 H      0.0085322057     -0.0426362024      1.0353349989
 O     -2.3079757754      1.5428223269      0.5266116087