
                                 *****************
                                 * O   R   C   A *
                                 *****************

                                            #,                                       
                                            ###                                      
                                            ####                                     
                                            #####                                    
                                            ######                                   
                                           ########,                                 
                                     ,,################,,,,,                         
                               ,,#################################,,                 
                          ,,##########################################,,             
                       ,#########################################, ''#####,          
                    ,#############################################,,   '####,        
                  ,##################################################,,,,####,       
                ,###########''''           ''''###############################       
              ,#####''   ,,,,##########,,,,          '''####'''          '####       
            ,##' ,,,,###########################,,,                        '##       
           ' ,,###''''                  '''############,,,                           
         ,,##''                                '''############,,,,        ,,,,,,###''
      ,#''                                            '''#######################'''  
     '                                                          ''''####''''         
             ,#######,   #######,   ,#######,      ##                                
            ,#'     '#,  ##    ##  ,#'     '#,    #''#        ######   ,####,        
            ##       ##  ##   ,#'  ##            #'  '#       #        #'  '#        
            ##       ##  #######   ##           ,######,      #####,   #    #        
            '#,     ,#'  ##    ##  '#,     ,#' ,#      #,         ##   #,  ,#        
             '#######'   ##     ##  '#######'  #'      '#     #####' # '####'        



                  #######################################################
                  #                        -***-                        #
                  #          Department of theory and spectroscopy      #
                  #    Directorship and core code : Frank Neese         #
                  #        Max Planck Institute fuer Kohlenforschung    #
                  #                Kaiser Wilhelm Platz 1               #
                  #                 D-45470 Muelheim/Ruhr               #
                  #                      Germany                        #
                  #                                                     #
                  #                  All rights reserved                #
                  #                        -***-                        #
                  #######################################################


                         Program Version 5.0.3 -  RELEASE  -


 With contributions from (in alphabetic order):
   Daniel Aravena         : Magnetic Suceptibility
   Michael Atanasov       : Ab Initio Ligand Field Theory (pilot matlab implementation)
   Alexander A. Auer      : GIAO ZORA, VPT2 properties, NMR spectrum
   Ute Becker             : Parallelization
   Giovanni Bistoni       : ED, misc. LED, open-shell LED, HFLD
   Martin Brehm           : Molecular dynamics
   Dmytro Bykov           : SCF Hessian
   Vijay G. Chilkuri      : MRCI spin determinant printing, contributions to CSF-ICE
   Dipayan Datta          : RHF DLPNO-CCSD density
   Achintya Kumar Dutta   : EOM-CC, STEOM-CC
   Dmitry Ganyushin       : Spin-Orbit,Spin-Spin,Magnetic field MRCI
   Miquel Garcia          : C-PCM and meta-GGA Hessian, CC/C-PCM, Gaussian charge scheme
   Yang Guo               : DLPNO-NEVPT2, F12-NEVPT2, CIM, IAO-localization
   Andreas Hansen         : Spin unrestricted coupled pair/coupled cluster methods
   Benjamin Helmich-Paris : MC-RPA, TRAH-SCF, COSX integrals
   Lee Huntington         : MR-EOM, pCC
   Robert Izsak           : Overlap fitted RIJCOSX, COSX-SCS-MP3, EOM
   Marcus Kettner         : VPT2
   Christian Kollmar      : KDIIS, OOCD, Brueckner-CCSD(T), CCSD density, CASPT2, CASPT2-K
   Simone Kossmann        : Meta GGA functionals, TD-DFT gradient, OOMP2, MP2 Hessian
   Martin Krupicka        : Initial AUTO-CI
   Lucas Lang             : DCDCAS
   Marvin Lechner         : AUTO-CI (C++ implementation), FIC-MRCC
   Dagmar Lenk            : GEPOL surface, SMD
   Dimitrios Liakos       : Extrapolation schemes; Compound Job, initial MDCI parallelization
   Dimitrios Manganas     : Further ROCIS development; embedding schemes
   Dimitrios Pantazis     : SARC Basis sets
   Anastasios Papadopoulos: AUTO-CI, single reference methods and gradients
   Taras Petrenko         : DFT Hessian,TD-DFT gradient, ASA, ECA, R-Raman, ABS, FL, XAS/XES, NRVS
   Peter Pinski           : DLPNO-MP2, DLPNO-MP2 Gradient
   Christoph Reimann      : Effective Core Potentials
   Marius Retegan         : Local ZFS, SOC
   Christoph Riplinger    : Optimizer, TS searches, QM/MM, DLPNO-CCSD(T), (RO)-DLPNO pert. Triples
   Tobias Risthaus        : Range-separated hybrids, TD-DFT gradient, RPA, STAB
   Michael Roemelt        : Original ROCIS implementation
   Masaaki Saitow         : Open-shell DLPNO-CCSD energy and density
   Barbara Sandhoefer     : DKH picture change effects
   Avijit Sen             : IP-ROCIS
   Kantharuban Sivalingam : CASSCF convergence, NEVPT2, FIC-MRCI
   Bernardo de Souza      : ESD, SOC TD-DFT
   Georgi Stoychev        : AutoAux, RI-MP2 NMR, DLPNO-MP2 response
   Willem Van den Heuvel  : Paramagnetic NMR
   Boris Wezisla          : Elementary symmetry handling
   Frank Wennmohs         : Technical directorship


 We gratefully acknowledge several colleagues who have allowed us to
 interface, adapt or use parts of their codes:
   Stefan Grimme, W. Hujo, H. Kruse, P. Pracht,  : VdW corrections, initial TS optimization,
                  C. Bannwarth, S. Ehlert          DFT functionals, gCP, sTDA/sTD-DF
   Ed Valeev, F. Pavosevic, A. Kumar             : LibInt (2-el integral package), F12 methods
   Garnet Chan, S. Sharma, J. Yang, R. Olivares  : DMRG
   Ulf Ekstrom                                   : XCFun DFT Library
   Mihaly Kallay                                 : mrcc  (arbitrary order and MRCC methods)
   Jiri Pittner, Ondrej Demel                    : Mk-CCSD
   Frank Weinhold                                : gennbo (NPA and NBO analysis)
   Christopher J. Cramer and Donald G. Truhlar   : smd solvation model
   Lars Goerigk                                  : TD-DFT with DH, B97 family of functionals
   V. Asgeirsson, H. Jonsson                     : NEB implementation
   FAccTs GmbH                                   : IRC, NEB, NEB-TS, DLPNO-Multilevel, CI-OPT
                                                   MM, QMMM, 2- and 3-layer-ONIOM, Crystal-QMMM,
                                                   LR-CPCM, SF, NACMEs, symmetry and pop. for TD-DFT,
                                                   nearIR, NL-DFT gradient (VV10), updates on ESD,
                                                   ML-optimized integration grids
   S Lehtola, MJT Oliveira, MAL Marques          : LibXC Library
   Liviu Ungur et al                             : ANISO software


 Your calculation uses the libint2 library for the computation of 2-el integrals
 For citations please refer to: http://libint.valeyev.net

 Your ORCA version has been built with support for libXC version: 5.1.0
 For citations please refer to: https://tddft.org/programs/libxc/

 This ORCA versions uses:
   CBLAS   interface :  Fast vector & matrix operations
   LAPACKE interface :  Fast linear algebra routines
   SCALAPACK package :  Parallel linear algebra routines
   Shared memory     :  Shared parallel matrices
   BLAS/LAPACK       :  OpenBLAS 0.3.15  USE64BITINT DYNAMIC_ARCH NO_AFFINITY Prescott SINGLE_THREADED
        Core in use  :  Prescott
   Copyright (c) 2011-2014, The OpenBLAS Project




***************************************
The coordinates will be read from file: inp.xyz
***************************************


Your calculation utilizes the geometrical counterpoise correction gCP
Please cite in your paper:
H.Kruse, S. Grimme J.Chem.Phys., 136, (2012), 154101 
   

Your calculation utilizes the atom-pairwise dispersion correction
based on tight binding partial charges (D4)
Cite in your paper:
E.Caldeweyher, C.Bannwarth, S.Grimme, J.Chem.Phys., (2017), 147, 034112.
E.Caldeweyher, S.Ehlert, A.Hansen, H.Neugebauer, S.Grimme, J.Chem.Phys., (2018), in progress.
   

================================================================================

----- Orbital basis set information -----
Your calculation utilizes the basis: def2-mTZVPP
   Stefan Grimme, Andreas Hansen, Sebastian Ehlert, and Jan-Michael Mewes 
   J. Chem. Phys. 154, 000000 (2021). DOI: 10.1063/5.0040021

----- AuxJ basis set information -----
Your calculation utilizes the basis: def2-mTZVPP/J
   Stefan Grimme, Andreas Hansen, Sebastian Ehlert, and Jan-Michael Mewes 
   J. Chem. Phys. 154, 000000 (2021). DOI: 10.1063/5.0040021

================================================================================
                                        WARNINGS
                       Please study these warnings very carefully!
================================================================================

Using LibXC functional ID 497 : Re-regularized SCAN exchange by Furness et al
[ 1]  J. W. Furness, A. D. Kaplan, J. Ning, J. P. Perdew, and J. Sun, J. Phys. Chem. Lett. 11, 8208 (2020)
[ 2]  J. W. Furness, A. D. Kaplan, J. Ning, J. P. Perdew, and J. Sun, J. Phys. Chem. Lett. 11, 9248 (2020)
Using LibXC functional ID 498 : Re-regularized SCAN correlation by Furness et al
[ 1]  J. W. Furness, A. D. Kaplan, J. Ning, J. P. Perdew, and J. Sun, J. Phys. Chem. Lett. 11, 8208 (2020)
[ 2]  J. W. Furness, A. D. Kaplan, J. Ning, J. P. Perdew, and J. Sun, J. Phys. Chem. Lett. 11, 9248 (2020)
Using LibXC functional ID 497 : Re-regularized SCAN exchange by Furness et al
[ 1]  J. W. Furness, A. D. Kaplan, J. Ning, J. P. Perdew, and J. Sun, J. Phys. Chem. Lett. 11, 8208 (2020)
[ 2]  J. W. Furness, A. D. Kaplan, J. Ning, J. P. Perdew, and J. Sun, J. Phys. Chem. Lett. 11, 9248 (2020)
Using LibXC functional ID 498 : Re-regularized SCAN correlation by Furness et al
[ 1]  J. W. Furness, A. D. Kaplan, J. Ning, J. P. Perdew, and J. Sun, J. Phys. Chem. Lett. 11, 8208 (2020)
[ 2]  J. W. Furness, A. D. Kaplan, J. Ning, J. P. Perdew, and J. Sun, J. Phys. Chem. Lett. 11, 9248 (2020)

INFO   : the flag for use of the SHARK integral package has been found!

================================================================================
                                       INPUT FILE
================================================================================
NAME = inp
|  1> !r2scan-3c Opt D4 Freq TightOpt
|  2> !MORead  
|  3> %moinp "inp_previous.gbw"
|  4> %pal
|  5>  nprocs 8
|  6> end
|  7> * xyzfile 0 1 inp.xyz
|  8> 
|  9> 
| 10>                          ****END OF INPUT****
================================================================================

                       *****************************
                       * Geometry Optimization Run *
                       *****************************

Geometry optimization settings:
Update method            Update   .... BFGS
Choice of coordinates    CoordSys .... Z-matrix Internals
Initial Hessian          InHess   .... Almoef's Model

Convergence Tolerances:
Energy Change            TolE     ....  1.0000e-06 Eh
Max. Gradient            TolMAXG  ....  1.0000e-04 Eh/bohr
RMS Gradient             TolRMSG  ....  3.0000e-05 Eh/bohr
Max. Displacement        TolMAXD  ....  1.0000e-03 bohr
RMS Displacement         TolRMSD  ....  6.0000e-04 bohr
Strict Convergence                ....  False
------------------------------------------------------------------------------
                        ORCA OPTIMIZATION COORDINATE SETUP
------------------------------------------------------------------------------

The optimization will be done in new redundant internal coordinates
Making redundant internal coordinates   ...  (new redundants) done
Evaluating the initial hessian          ...  (Almloef) done
Evaluating the coordinates              ...  done
Calculating the B-matrix                .... done
Calculating the G-matrix                .... done
Diagonalizing the G-matrix              .... done
The first mode is                       ....   36
The number of degrees of freedom        ....   36

    -----------------------------------------------------------------
                    Redundant Internal Coordinates


    -----------------------------------------------------------------
         Definition                    Initial Value    Approx d2E/dq
    -----------------------------------------------------------------
      1. B(C   1,C   0)                  1.5019         0.414159   
      2. B(H   2,C   0)                  1.0940         0.354858   
      3. B(H   3,C   0)                  1.0941         0.354745   
      4. B(H   4,C   0)                  1.0893         0.361005   
      5. B(O   5,C   1)                  1.3431         0.664925   
      6. B(C   6,O   5)                  1.4484         0.451593   
      7. B(H   7,C   6)                  1.0929         0.356223   
      8. B(H   8,C   6)                  1.0897         0.360449   
      9. B(H   9,C   6)                  1.0930         0.356200   
     10. B(O  10,C   1)                  1.2149         1.064672   
     11. B(H  12,O  11)                  0.9609         0.518319   
     12. B(H  13,H   9)                  2.4475         0.000471   
     13. B(H  13,H   7)                  2.4537         0.000460   
     14. B(H  13,O  10)                  1.9779         0.012359   
     15. B(H  13,O  11)                  0.9696         0.501991   
     16. A(H   3,C   0,H   4)          110.1147         0.290270   
     17. A(C   1,C   0,H   3)          109.8312         0.329061   
     18. A(H   2,C   0,H   4)          110.1517         0.290285   
     19. A(C   1,C   0,H   4)          109.5740         0.330013   
     20. A(C   1,C   0,H   2)          109.8572         0.329078   
     21. A(H   2,C   0,H   3)          107.2834         0.289490   
     22. A(C   0,C   1,O   5)          111.1888         0.406344   
     23. A(O   5,C   1,O  10)          124.0566         0.478719   
     24. A(C   0,C   1,O  10)          124.7546         0.442023   
     25. A(C   1,O   5,C   6)          115.8859         0.409958   
     26. A(H   8,C   6,H   9)          110.7233         0.290387   
     27. A(O   5,C   6,H   9)          110.5249         0.332020   
     28. A(H   7,C   6,H   8)          110.7264         0.290390   
     29. A(H   7,C   6,H   9)          109.0735         0.289850   
     30. A(O   5,C   6,H   8)          105.2403         0.332673   
     31. A(O   5,C   6,H   7)          110.5191         0.332023   
     32. A(C   6,H   7,H  13)           98.3561         0.124636   
     33. A(C   6,H   9,H  13)           98.7062         0.124820   
     34. A(C   1,O  10,H  13)          135.4949         0.225290   
     35. A(H  12,O  11,H  13)          104.4113         0.319823   
     36. A(H   9,H  13,O  10)           73.4521         0.105544   
     37. A(H   7,H  13,O  10)           73.3095         0.105459   
     38. A(O  10,H  13,O  11)          170.7388         0.188087   
     39. A(H   7,H  13,H   9)           42.6013         0.095355   
     40. A(H   9,H  13,O  11)           98.0455         0.127261   
     41. A(H   7,H  13,O  11)           98.0075         0.127065   
     42. D(O  10,C   1,C   0,H   2)   -121.4488         0.012695   
     43. D(O   5,C   1,C   0,H   2)     58.5639         0.012695   
     44. D(O   5,C   1,C   0,H   3)    -59.2136         0.012695   
     45. D(O  10,C   1,C   0,H   4)     -0.3065         0.012695   
     46. D(O   5,C   1,C   0,H   4)    179.7063         0.012695   
     47. D(O  10,C   1,C   0,H   3)    120.7737         0.012695   
     48. D(C   6,O   5,C   1,C   0)    179.9414         0.032800   
     49. D(C   6,O   5,C   1,O  10)     -0.0460         0.032800   
     50. D(H   9,C   6,O   5,C   1)     60.4372         0.016061   
     51. D(H   8,C   6,O   5,C   1)   -179.9845         0.016061   
     52. D(H   7,C   6,O   5,C   1)    -60.4057         0.016061   
     53. D(H  13,H   7,C   6,H   8)   -154.4866         0.118313   
     54. D(H  13,H   7,C   6,O   5)     89.3000         0.118313   
     55. D(H  13,H   7,C   6,H   9)    -32.4031         0.118313   
     56. D(H  13,H   9,C   6,O   5)    -89.1708         0.118294   
     57. D(H  13,H   9,C   6,H   8)    154.6141         0.118294   
     58. D(H  13,H   9,C   6,H   7)     32.5288         0.118294   
     59. D(H  13,O  10,C   1,O   5)     -0.2865         0.094711   
     60. D(H  13,O  10,C   1,C   0)    179.7278         0.094711   
     61. D(H   9,H  13,O  11,H  12)   -158.5730         0.350200   
     62. D(H   7,H  13,O  11,H  12)    158.3834         0.350200   
     63. D(H   9,H  13,O  10,C   1)    -21.9401         0.001588   
     64. D(O  11,H  13,O  10,C   1)      1.8652         0.001588   
     65. D(O  10,H  13,H   9,C   6)     63.5977         0.001502   
     66. D(H   7,H  13,H   9,C   6)    -19.5377         0.001502   
     67. D(H   7,H  13,O  10,C   1)     22.6152         0.001588   
     68. D(O  11,H  13,H   9,C   6)   -112.6408         0.001502   
     69. D(O  10,H  13,H   7,C   6)    -63.9793         0.001502   
     70. D(H   9,H  13,H   7,C   6)     19.5194         0.001502   
     71. D(O  10,H  13,O  11,H  12)    178.4253         0.350200   
     72. D(O  11,H  13,H   7,C   6)    112.7198         0.001502   
    -----------------------------------------------------------------

Number of atoms                         .... 14
Number of degrees of freedom            .... 72

         *************************************************************
         *                GEOMETRY OPTIMIZATION CYCLE   1            *
         *************************************************************
---------------------------------
CARTESIAN COORDINATES (ANGSTROEM)
---------------------------------
  C     -3.911452   -0.281840   -0.076558
  C     -2.548917    0.308708    0.148238
  H     -4.033215   -1.179483    0.536819
  H     -4.016226   -0.586029   -1.122262
  H     -4.674226    0.452977    0.178060
  O     -1.581893   -0.574187   -0.150356
  C     -0.222460   -0.107868    0.029276
  H     -0.027366    0.758623   -0.607641
  H      0.408984   -0.948076   -0.258568
  H     -0.046781    0.168543    1.072015
  O     -2.340399    1.436996    0.547610
  O      0.136152    2.918053    1.105091
  H     -0.062691    3.805207    1.416004
  H     -0.732601    2.514976    0.953873

----------------------------
CARTESIAN COORDINATES (A.U.)
----------------------------
  NO LB      ZA    FRAG     MASS         X           Y           Z
   0 C     6.0000    0    12.011   -7.391574   -0.532601   -0.144673
   1 C     6.0000    0    12.011   -4.816755    0.583373    0.280128
   2 H     1.0000    0     1.008   -7.621672   -2.228899    1.014441
   3 H     1.0000    0     1.008   -7.589567   -1.107435   -2.120769
   4 H     1.0000    0     1.008   -8.833007    0.856003    0.336485
   5 O     8.0000    0    15.999   -2.989344   -1.085057   -0.284133
   6 C     6.0000    0    12.011   -0.420388   -0.203841    0.055323
   7 H     1.0000    0     1.008   -0.051714    1.433591   -1.148275
   8 H     1.0000    0     1.008    0.772869   -1.791604   -0.488623
   9 H     1.0000    0     1.008   -0.088404    0.318500    2.025814
  10 O     8.0000    0    15.999   -4.422713    2.715529    1.034834
  11 O     8.0000    0    15.999    0.257289    5.514321    2.088319
  12 H     1.0000    0     1.008   -0.118469    7.190800    2.675860
  13 H     1.0000    0     1.008   -1.384415    4.752615    1.802559

--------------------------------
INTERNAL COORDINATES (ANGSTROEM)
--------------------------------
 C      0   0   0     0.000000000000     0.00000000     0.00000000
 C      1   0   0     1.501926468888     0.00000000     0.00000000
 H      1   2   0     1.093991849164   109.85723884     0.00000000
 H      1   2   3     1.094078190673   109.83122593   242.22257129
 H      1   2   3     1.089316579956   109.57400971   121.14237934
 O      2   1   3     1.343055321646   111.18877097    58.56387294
 C      6   2   1     1.448371464776   115.88593788   179.94141514
 H      7   6   2     1.092946269473   110.51905227   299.59431592
 H      7   6   2     1.089736566337   105.24025925   180.01545150
 H      7   6   2     1.092964104815   110.52487676    60.43715690
 O      2   1   3     1.214912788368   124.75458942   238.55116143
 O     10   7   6     2.755787118360   105.92893830   251.29557072
 H     12  10   7     0.960858423992   155.69082959   130.83371090
 H     12  10   7     0.969571305380    61.56700232    71.57365760

---------------------------
INTERNAL COORDINATES (A.U.)
---------------------------
 C      0   0   0     0.000000000000     0.00000000     0.00000000
 C      1   0   0     2.838229699486     0.00000000     0.00000000
 H      1   2   0     2.067344987663   109.85723884     0.00000000
 H      1   2   3     2.067508149468   109.83122593   242.22257129
 H      1   2   3     2.058510009256   109.57400971   121.14237934
 O      2   1   3     2.538006740617   111.18877097    58.56387294
 C      6   2   1     2.737025408613   115.88593788   179.94141514
 H      7   6   2     2.065369128396   110.51905227   299.59431592
 H      7   6   2     2.059303668497   105.24025925   180.01545150
 H      7   6   2     2.065402832306   110.52487676    60.43715690
 O      2   1   3     2.295852446614   124.75458942   238.55116143
 O     10   7   6     5.207682937088   105.92893830   251.29557072
 H     12  10   7     1.815759274816   155.69082959   130.83371090
 H     12  10   7     1.832224234477    61.56700232    71.57365760

---------------------
BASIS SET INFORMATION
---------------------
There are 3 groups of distinct atoms

 Group   1 Type C   : 11s6p1d contracted to 5s3p1d pattern {62111/411/1}
 Group   2 Type H   : 4s1p contracted to 2s1p pattern {31/1}
 Group   3 Type O   : 11s6p2d contracted to 5s3p2d pattern {62111/411/11}

Atom   0C    basis set group =>   1
Atom   1C    basis set group =>   1
Atom   2H    basis set group =>   2
Atom   3H    basis set group =>   2
Atom   4H    basis set group =>   2
Atom   5O    basis set group =>   3
Atom   6C    basis set group =>   1
Atom   7H    basis set group =>   2
Atom   8H    basis set group =>   2
Atom   9H    basis set group =>   2
Atom  10O    basis set group =>   3
Atom  11O    basis set group =>   3
Atom  12H    basis set group =>   2
Atom  13H    basis set group =>   2
---------------------------------
AUXILIARY/J BASIS SET INFORMATION
---------------------------------
There are 3 groups of distinct atoms

 Group   1 Type C   : 8s3p3d contracted to 6s3p3d pattern {311111/111/111}
 Group   2 Type H   : 5s2p1d contracted to 3s1p1d pattern {311/2/1}
 Group   3 Type O   : 8s3p3d contracted to 6s3p3d pattern {311111/111/111}

Atom   0C    basis set group =>   1
Atom   1C    basis set group =>   1
Atom   2H    basis set group =>   2
Atom   3H    basis set group =>   2
Atom   4H    basis set group =>   2
Atom   5O    basis set group =>   3
Atom   6C    basis set group =>   1
Atom   7H    basis set group =>   2
Atom   8H    basis set group =>   2
Atom   9H    basis set group =>   2
Atom  10O    basis set group =>   3
Atom  11O    basis set group =>   3
Atom  12H    basis set group =>   2
Atom  13H    basis set group =>   2
[urraka:25891] mca_base_component_repository_open: unable to open mca_btl_openib: libibverbs.so.1: cannot open shared object file: No such file or directory (ignored)
[urraka:25888] mca_base_component_repository_open: unable to open mca_btl_openib: libibverbs.so.1: cannot open shared object file: No such file or directory (ignored)
[urraka:25892] mca_base_component_repository_open: unable to open mca_btl_openib: libibverbs.so.1: cannot open shared object file: No such file or directory (ignored)
[urraka:25890] mca_base_component_repository_open: unable to open mca_btl_openib: libibverbs.so.1: cannot open shared object file: No such file or directory (ignored)
[urraka:25889] mca_base_component_repository_open: unable to open mca_btl_openib: libibverbs.so.1: cannot open shared object file: No such file or directory (ignored)
[urraka:25894] mca_base_component_repository_open: unable to open mca_btl_openib: libibverbs.so.1: cannot open shared object file: No such file or directory (ignored)
[urraka:25898] mca_base_component_repository_open: unable to open mca_btl_openib: libibverbs.so.1: cannot open shared object file: No such file or directory (ignored)
[urraka:25895] mca_base_component_repository_open: unable to open mca_btl_openib: libibverbs.so.1: cannot open shared object file: No such file or directory (ignored)


           ************************************************************
           *        Program running with 8 parallel MPI-processes     *
           *              working on a common directory               *
           ************************************************************
------------------------------------------------------------------------------
                           ORCA GTO INTEGRAL CALCULATION
                           -- RI-GTO INTEGRALS CHOSEN --
------------------------------------------------------------------------------
------------------------------------------------------------------------------
                   ___                                                        
                  /   \      - P O W E R E D   B Y -                         
                 /     \                                                     
                 |  |  |   _    _      __       _____    __    __             
                 |  |  |  | |  | |    /  \     |  _  \  |  |  /  |          
                  \  \/   | |  | |   /    \    | | | |  |  | /  /          
                 / \  \   | |__| |  /  /\  \   | |_| |  |  |/  /          
                |  |  |   |  __  | /  /__\  \  |    /   |      \           
                |  |  |   | |  | | |   __   |  |    \   |  |\   \          
                \     /   | |  | | |  |  |  |  | |\  \  |  | \   \       
                 \___/    |_|  |_| |__|  |__|  |_| \__\ |__|  \__/        
                                                                              
                      - O R C A' S   B I G   F R I E N D -                    
                                      &                                       
                       - I N T E G R A L  F E E D E R -                       
                                                                              
 v1 FN, 2020, v2 2021                                                         
------------------------------------------------------------------------------


Reading SHARK input file inp.SHARKINP.tmp ... ok
----------------------
SHARK INTEGRAL PACKAGE
----------------------

Number of atoms                             ...     14
Number of basis functions                   ...    169
Number of shells                            ...     81
Maximum angular momentum                    ...      2
Integral batch strategy                     ... SHARK/LIBINT Hybrid
RI-J (if used) integral strategy            ... SPLIT-RIJ (Revised 2003 algorithm where possible)
Printlevel                                  ...      1
Contraction scheme used                     ... SEGMENTED contraction
Coulomb Range Separation                    ... NOT USED
Exchange Range Separation                   ... NOT USED
Finite Nucleus Model                        ... NOT USED
Auxiliary Coulomb fitting basis             ... AVAILABLE
   # of basis functions in Aux-J            ...    268
   # of shells in Aux-J                     ...    112
   Maximum angular momentum in Aux-J        ...      2
Auxiliary J/K fitting basis                 ... NOT available
Auxiliary Correlation fitting basis         ... NOT available
Auxiliary 'external' fitting basis          ... NOT available
Integral threshold                          ...     2.500000e-11
Primitive cut-off                           ...     2.500000e-12
Primitive pair pre-selection threshold      ...     2.500000e-12

Calculating pre-screening integrals         ... done (  0.1 sec) Dimension = 81
Organizing shell pair data                  ... done (  0.0 sec)
Shell pair information
Total number of shell pairs                 ...      3321
Shell pairs after pre-screening             ...      2992
Total number of primitive shell pairs       ...     11632
Primitive shell pairs kept                  ...      7646
          la=0 lb=0:    956 shell pairs
          la=1 lb=0:   1069 shell pairs
          la=1 lb=1:    318 shell pairs
          la=2 lb=0:    383 shell pairs
          la=2 lb=1:    223 shell pairs
          la=2 lb=2:     43 shell pairs

Calculating one electron integrals          ... done (  0.0 sec)
Calculating RI/J V-Matrix + Cholesky decomp.... done (  0.0 sec)
Calculating Nuclear repulsion               ... done (  0.0 sec) ENN=    247.538899486514 Eh

SHARK setup successfully completed in   0.2 seconds

Maximum memory used throughout the entire GTOINT-calculation: 10.5 MB
[urraka:25923] mca_base_component_repository_open: unable to open mca_btl_openib: libibverbs.so.1: cannot open shared object file: No such file or directory (ignored)
[urraka:25920] mca_base_component_repository_open: unable to open mca_btl_openib: libibverbs.so.1: cannot open shared object file: No such file or directory (ignored)
[urraka:25917] mca_base_component_repository_open: unable to open mca_btl_openib: libibverbs.so.1: cannot open shared object file: No such file or directory (ignored)
[urraka:25919] mca_base_component_repository_open: unable to open mca_btl_openib: libibverbs.so.1: cannot open shared object file: No such file or directory (ignored)
[urraka:25918] mca_base_component_repository_open: unable to open mca_btl_openib: libibverbs.so.1: cannot open shared object file: No such file or directory (ignored)
[urraka:25924] mca_base_component_repository_open: unable to open mca_btl_openib: libibverbs.so.1: cannot open shared object file: No such file or directory (ignored)
[urraka:25921] mca_base_component_repository_open: unable to open mca_btl_openib: libibverbs.so.1: cannot open shared object file: No such file or directory (ignored)
[urraka:25927] mca_base_component_repository_open: unable to open mca_btl_openib: libibverbs.so.1: cannot open shared object file: No such file or directory (ignored)


           ************************************************************
           *        Program running with 8 parallel MPI-processes     *
           *              working on a common directory               *
           ************************************************************
-------------------------------------------------------------------------------
                                 ORCA SCF
-------------------------------------------------------------------------------

------------
SCF SETTINGS
------------
Hamiltonian:
 Density Functional     Method          .... DFT(GTOs)
  Functional kind                       .... Exchange
  Functional name                       .... Re-regularized SCAN exchange by Furness et al
  Functional family                     .... MGGA
  Functional refs                              
    [ 0] J. W. Furness, A. D. Kaplan, J. Ning, J. P. Perdew, and J. Sun, J. Phys. Chem. Lett. 11, 8208 (2020)
    [ 1] J. W. Furness, A. D. Kaplan, J. Ning, J. P. Perdew, and J. Sun, J. Phys. Chem. Lett. 11, 9248 (2020)
  Functional external parameters         .... 8
 Parameter  0 :         c1 parameter
 Parameter  1 :         c2 parameter
 Parameter  2 :          d parameter
 Parameter  3 :         k1 parameter
 Parameter  4 :       taur parameter
 Parameter  5 :     alphar parameter
 Parameter  6 :        eta parameter
 Parameter  7 :        dp2 parameter
  Functional kind                       .... Correlation
  Functional name                       .... Re-regularized SCAN correlation by Furness et al
  Functional family                     .... MGGA
  Functional refs                              
    [ 0] J. W. Furness, A. D. Kaplan, J. Ning, J. P. Perdew, and J. Sun, J. Phys. Chem. Lett. 11, 8208 (2020)
    [ 1] J. W. Furness, A. D. Kaplan, J. Ning, J. P. Perdew, and J. Sun, J. Phys. Chem. Lett. 11, 9248 (2020)
  Functional external parameters         .... 0
 Gradients option       PostSCFGGA      .... off
   Density functional embedding theory  .... OFF
 RI-approximation to the Coulomb term is turned on
   Number of AuxJ basis functions       .... 268


General Settings:
 Integral files         IntName         .... inp
 Hartree-Fock type      HFTyp           .... RHF
 Total Charge           Charge          ....    0
 Multiplicity           Mult            ....    1
 Number of Electrons    NEL             ....   50
 Basis Dimension        Dim             ....  169
 Nuclear Repulsion      ENuc            ....    247.5388994865 Eh

Convergence Acceleration:
 DIIS                   CNVDIIS         .... on
   Start iteration      DIISMaxIt       ....    12
   Startup error        DIISStart       ....  0.200000
   # of expansion vecs  DIISMaxEq       ....     5
   Bias factor          DIISBfac        ....   1.050
   Max. coefficient     DIISMaxC        ....  10.000
 Trust-Rad. Augm. Hess. CNVTRAH         .... auto
   Auto Start mean grad. ratio tolernc. ....  1.125000
   Auto Start start iteration           ....     1
   Auto Start num. interpolation iter.  ....    10
   Max. Number of Micro iterations      ....    16
   Max. Number of Macro iterations      .... Maxiter - #DIIS iter
   Number of Davidson start vectors     ....     2
   Converg. threshold I  (grad. norm)   ....   1.000e-05
   Converg. threshold II (energy diff.) ....   1.000e-08
   Grad. Scal. Fac. for Micro threshold ....   0.100
   Minimum threshold for Micro iter.    ....   0.010
   NR start threshold (gradient norm)   ....   0.001
   Initial trust radius                 ....   0.400
   Minimum AH scaling param. (alpha)    ....   1.000
   Maximum AH scaling param. (alpha)    .... 1000.000
   Orbital update algorithm             .... Taylor
   White noise on init. David. guess    .... on
   Maximum white noise                  ....   0.010
   Quad. conv. algorithm                .... NR
   COSX micro iterations for RIJONX calc.... off
 SOSCF                  CNVSOSCF        .... on
   Start iteration      SOSCFMaxIt      ....   150
   Startup grad/error   SOSCFStart      ....  0.003300
 Level Shifting         CNVShift        .... on
   Level shift para.    LevelShift      ....    0.2500
   Turn off err/grad.   ShiftErr        ....    0.0010
 Zerner damping         CNVZerner       .... off
 Static damping         CNVDamp         .... on
   Fraction old density DampFac         ....    0.7000
   Max. Damping (<1)    DampMax         ....    0.9800
   Min. Damping (>=0)   DampMin         ....    0.0000
   Turn off err/grad.   DampErr         ....    0.1000
 Fernandez-Rico         CNVRico         .... off

SCF Procedure:
 Maximum # iterations   MaxIter         ....   125
 SCF integral mode      SCFMode         .... Direct
   Integral package                     .... SHARK and LIBINT hybrid scheme
 Reset frequency        DirectResetFreq ....    20
 Integral Threshold     Thresh          ....  2.500e-11 Eh
 Primitive CutOff       TCut            ....  2.500e-12 Eh

Convergence Tolerance:
 Convergence Check Mode ConvCheckMode   .... Total+1el-Energy
 Convergence forced     ConvForced      .... 0
 Energy Change          TolE            ....  1.000e-08 Eh
 1-El. energy change                    ....  1.000e-05 Eh
 Orbital Gradient       TolG            ....  1.000e-05
 Orbital Rotation angle TolX            ....  1.000e-05
 DIIS Error             TolErr          ....  5.000e-07


Diagonalization of the overlap matrix:
Smallest eigenvalue                        ... 3.580e-04
Time for diagonalization                   ...    0.010 sec
Threshold for overlap eigenvalues          ... 1.000e-08
Number of eigenvalues below threshold      ... 0
Time for construction of square roots      ...    0.009 sec
Total time needed                          ...    0.021 sec

---------------------
INITIAL GUESS: MOREAD
---------------------
Guess MOs are being read from file: inp_previous.gbw
Input Geometry matches current geometry (good)
Input basis set matches current basis set (good)
MOs were renormalized
MOs were reorthogonalized (Cholesky)
                      ------------------
                      INITIAL GUESS DONE (   0.0 sec)
                      ------------------
-------------------
DFT GRID GENERATION
-------------------

General Integration Accuracy     IntAcc      ... 4.388
Radial Grid Type                 RadialGrid  ... OptM3 with GC (2021)
Angular Grid (max. ang.)         AngularGrid ... 4 (Lebedev-302)
Angular grid pruning method      GridPruning ... 4 (adaptive)
Weight generation scheme         WeightScheme... Becke
Basis function cutoff            BFCut       ... 1.0000e-11
Integration weight cutoff        WCut        ... 1.0000e-14
Angular grids for H and He will be reduced by one unit
Partially contracted basis set               ... off
Rotationally invariant grid construction     ... off

Total number of grid points                  ...    63304
Total number of batches                      ...      998
Average number of points per batch           ...       63
Average number of grid points per atom       ...     4522
Time for grid setup =    0.701 sec

--------------
SCF ITERATIONS
--------------
ITER       Energy         Delta-E        Max-DP      RMS-DP      [F,P]     Damp
               ***  Starting incremental Fock matrix formation  ***
                      *** Initiating the SOSCF procedure ***
                      *** Re-Reading the Fockian *** 
                      *** Removing any level shift *** 
ITER      Energy       Delta-E        Grad      Rot      Max-DP    RMS-DP
  0   -344.77566681 -344.7756668099  0.000003  0.000003  0.000005  0.000000
               *** Restarting incremental Fock matrix formation ***
  1   -344.77566681   0.0000000000  0.000003  0.000013  0.000012  0.000000
  2   -344.77566681   0.0000000012  0.000010  0.000011  0.000009  0.000000
                  ***Gradient check signals convergence***
              ***Rediagonalizing the Fockian in SOSCF/NRSCF***

               *****************************************************
               *                     SUCCESS                       *
               *           SCF CONVERGED AFTER   3 CYCLES          *
               *****************************************************


----------------
TOTAL SCF ENERGY
----------------

Total Energy       :         -344.77566681 Eh           -9381.82286 eV

Components:
Nuclear Repulsion  :          247.53889949 Eh            6735.87590 eV
Electronic Energy  :         -592.31456629 Eh          -16117.69876 eV
One Electron Energy:         -961.37829158 Eh          -26160.43328 eV
Two Electron Energy:          369.06372529 Eh           10042.73453 eV

Virial components:
Potential Energy   :         -688.11429441 Eh          -18724.54189 eV
Kinetic Energy     :          343.33862761 Eh            9342.71903 eV
Virial Ratio       :            2.00418549


DFT components:
N(Alpha)           :       25.000006547208 electrons
N(Beta)            :       25.000006547208 electrons
N(Total)           :       50.000013094417 electrons
E(X)               :      -43.269642663010 Eh       
E(C)               :       -1.610392730946 Eh       
E(XC)              :      -44.880035393956 Eh       
DFET-embed. en.    :        0.000000000000 Eh       

---------------
SCF CONVERGENCE
---------------

  Last Energy change         ...    8.7448e-10  Tolerance :   1.0000e-08
  Last MAX-Density change    ...    1.8650e-06  Tolerance :   1.0000e-07
  Last RMS-Density change    ...    5.9577e-08  Tolerance :   5.0000e-09
  Last Orbital Gradient      ...    6.2759e-07  Tolerance :   1.0000e-05
  Last Orbital Rotation      ...    1.8607e-06  Tolerance :   1.0000e-05

             **** THE GBW FILE WAS UPDATED (inp.gbw) ****
             **** DENSITY inp.scfp WAS UPDATED ****
             **** ENERGY FILE WAS UPDATED (inp.en.tmp) ****
             **** THE GBW FILE WAS UPDATED (inp.gbw) ****
             **** DENSITY inp.scfp WAS UPDATED ****
----------------
ORBITAL ENERGIES
----------------

  NO   OCC          E(Eh)            E(eV) 
   0   2.0000     -19.009775      -517.2823 
   1   2.0000     -18.951378      -515.6932 
   2   2.0000     -18.922958      -514.9199 
   3   2.0000     -10.172243      -276.8008 
   4   2.0000     -10.088339      -274.5176 
   5   2.0000     -10.051085      -273.5039 
   6   2.0000      -1.078832       -29.3565 
   7   2.0000      -0.992543       -27.0085 
   8   2.0000      -0.946392       -25.7526 
   9   2.0000      -0.744280       -20.2529 
  10   2.0000      -0.675322       -18.3764 
  11   2.0000      -0.542293       -14.7566 
  12   2.0000      -0.487474       -13.2648 
  13   2.0000      -0.464091       -12.6285 
  14   2.0000      -0.462662       -12.5897 
  15   2.0000      -0.450415       -12.2564 
  16   2.0000      -0.406423       -11.0593 
  17   2.0000      -0.395551       -10.7635 
  18   2.0000      -0.378547       -10.3008 
  19   2.0000      -0.350262        -9.5311 
  20   2.0000      -0.340697        -9.2708 
  21   2.0000      -0.322864        -8.7856 
  22   2.0000      -0.287538        -7.8243 
  23   2.0000      -0.257813        -7.0154 
  24   2.0000      -0.249032        -6.7765 
  25   0.0000      -0.030891        -0.8406 
  26   0.0000       0.058889         1.6024 
  27   0.0000       0.079924         2.1748 
  28   0.0000       0.110888         3.0174 
  29   0.0000       0.124381         3.3846 
  30   0.0000       0.141022         3.8374 
  31   0.0000       0.160149         4.3579 
  32   0.0000       0.163731         4.4553 
  33   0.0000       0.165412         4.5011 
  34   0.0000       0.177018         4.8169 
  35   0.0000       0.185193         5.0393 
  36   0.0000       0.194997         5.3061 
  37   0.0000       0.205355         5.5880 
  38   0.0000       0.210661         5.7324 
  39   0.0000       0.230117         6.2618 
  40   0.0000       0.267551         7.2804 
  41   0.0000       0.269758         7.3405 
  42   0.0000       0.273445         7.4408 
  43   0.0000       0.296034         8.0555 
  44   0.0000       0.308748         8.4015 
  45   0.0000       0.365618         9.9490 
  46   0.0000       0.380109        10.3433 
  47   0.0000       0.409594        11.1456 
  48   0.0000       0.415009        11.2930 
  49   0.0000       0.425157        11.5691 
  50   0.0000       0.437096        11.8940 
  51   0.0000       0.445491        12.1224 
  52   0.0000       0.464106        12.6290 
  53   0.0000       0.478402        13.0180 
  54   0.0000       0.481969        13.1150 
  55   0.0000       0.513455        13.9718 
  56   0.0000       0.535232        14.5644 
  57   0.0000       0.537472        14.6254 
  58   0.0000       0.540847        14.7172 
  59   0.0000       0.564610        15.3638 
  60   0.0000       0.610757        16.6195 
  61   0.0000       0.625114        17.0102 
  62   0.0000       0.663639        18.0585 
  63   0.0000       0.675746        18.3880 
  64   0.0000       0.711291        19.3552 
  65   0.0000       0.736939        20.0531 
  66   0.0000       0.742856        20.2141 
  67   0.0000       0.762169        20.7397 
  68   0.0000       0.799271        21.7493 
  69   0.0000       0.816344        22.2138 
  70   0.0000       0.823985        22.4218 
  71   0.0000       0.868972        23.6459 
  72   0.0000       0.927379        25.2353 
  73   0.0000       0.959658        26.1136 
  74   0.0000       0.989436        26.9239 
  75   0.0000       1.005424        27.3590 
  76   0.0000       1.040309        28.3082 
  77   0.0000       1.063723        28.9454 
  78   0.0000       1.076817        29.3017 
  79   0.0000       1.130877        30.7727 
  80   0.0000       1.145496        31.1705 
  81   0.0000       1.236316        33.6419 
  82   0.0000       1.254518        34.1372 
  83   0.0000       1.259732        34.2790 
  84   0.0000       1.297695        35.3121 
  85   0.0000       1.306385        35.5486 
  86   0.0000       1.314052        35.7572 
  87   0.0000       1.342182        36.5226 
  88   0.0000       1.346391        36.6372 
  89   0.0000       1.367172        37.2026 
  90   0.0000       1.430248        38.9190 
  91   0.0000       1.501146        40.8483 
  92   0.0000       1.510595        41.1054 
  93   0.0000       1.592539        43.3352 
  94   0.0000       1.618759        44.0487 
  95   0.0000       1.673727        45.5444 
  96   0.0000       1.736944        47.2646 
  97   0.0000       1.744577        47.4724 
  98   0.0000       1.821737        49.5720 
  99   0.0000       1.822136        49.5828 
 100   0.0000       1.845853        50.2282 
 101   0.0000       1.847587        50.2754 
 102   0.0000       1.872059        50.9413 
 103   0.0000       1.878046        51.1042 
 104   0.0000       2.038202        55.4623 
 105   0.0000       2.091620        56.9159 
 106   0.0000       2.102964        57.2246 
 107   0.0000       2.120436        57.7000 
 108   0.0000       2.131395        57.9982 
 109   0.0000       2.143201        58.3195 
 110   0.0000       2.158825        58.7446 
 111   0.0000       2.161031        58.8046 
 112   0.0000       2.249964        61.2246 
 113   0.0000       2.261937        61.5504 
 114   0.0000       2.299137        62.5627 
 115   0.0000       2.323110        63.2150 
 116   0.0000       2.370019        64.4915 
 117   0.0000       2.409772        65.5732 
 118   0.0000       2.415928        65.7408 
 119   0.0000       2.500508        68.0423 
 120   0.0000       2.541275        69.1516 
 121   0.0000       2.599089        70.7248 
 122   0.0000       2.622812        71.3703 
 123   0.0000       2.640658        71.8560 
 124   0.0000       2.656447        72.2856 
 125   0.0000       2.668743        72.6202 
 126   0.0000       2.679180        72.9042 
 127   0.0000       2.690702        73.2177 
 128   0.0000       2.694281        73.3151 
 129   0.0000       2.728233        74.2390 
 130   0.0000       2.770861        75.3990 
 131   0.0000       2.772444        75.4420 
 132   0.0000       2.793204        76.0070 
 133   0.0000       2.800108        76.1948 
 134   0.0000       2.842413        77.3460 
 135   0.0000       2.855022        77.6891 
 136   0.0000       2.885562        78.5201 
 137   0.0000       2.981025        81.1178 
 138   0.0000       3.014481        82.0282 
 139   0.0000       3.022183        82.2378 
 140   0.0000       3.050374        83.0049 
 141   0.0000       3.089214        84.0618 
 142   0.0000       3.112407        84.6929 
 143   0.0000       3.122744        84.9742 
 144   0.0000       3.166604        86.1677 
 145   0.0000       3.176899        86.4478 
 146   0.0000       3.262161        88.7679 
 147   0.0000       3.285431        89.4011 
 148   0.0000       3.285957        89.4154 
 149   0.0000       3.337513        90.8183 
 150   0.0000       3.413963        92.8987 
 151   0.0000       3.437950        93.5514 
 152   0.0000       3.446688        93.7892 
 153   0.0000       3.503081        95.3237 
 154   0.0000       3.527937        96.0001 
 155   0.0000       3.542485        96.3959 
 156   0.0000       3.549153        96.5774 
 157   0.0000       3.624464        98.6267 
 158   0.0000       3.986503       108.4783 
 159   0.0000       4.260377       115.9308 
 160   0.0000       4.390729       119.4778 
 161   0.0000       4.439282       120.7990 
 162   0.0000       4.799884       130.6115 
 163   0.0000      21.889036       595.6310 
 164   0.0000      21.999061       598.6249 
 165   0.0000      22.236035       605.0733 
 166   0.0000      43.569974      1185.5993 
 167   0.0000      43.664358      1188.1676 
 168   0.0000      43.787553      1191.5199 

                    ********************************
                    * MULLIKEN POPULATION ANALYSIS *
                    ********************************

-----------------------
MULLIKEN ATOMIC CHARGES
-----------------------
   0 C :   -0.506059
   1 C :    0.417593
   2 H :    0.171677
   3 H :    0.171772
   4 H :    0.177704
   5 O :   -0.180866
   6 C :   -0.301319
   7 H :    0.173361
   8 H :    0.153493
   9 H :    0.173402
  10 O :   -0.434482
  11 O :   -0.662992
  12 H :    0.291714
  13 H :    0.355002
Sum of atomic charges:   -0.0000000

--------------------------------
MULLIKEN REDUCED ORBITAL CHARGES
--------------------------------
  0 C s       :     3.329678  s :     3.329678
      pz      :     1.093524  p :     3.150686
      px      :     0.961278
      py      :     1.095883
      dz2     :     0.006024  d :     0.025696
      dxz     :     0.002370
      dyz     :     0.004460
      dx2y2   :     0.005560
      dxy     :     0.007282
  1 C s       :     3.125703  s :     3.125703
      pz      :     0.756036  p :     2.331898
      px      :     0.800134
      py      :     0.775727
      dz2     :     0.011246  d :     0.124805
      dxz     :     0.013795
      dyz     :     0.022338
      dx2y2   :     0.030043
      dxy     :     0.047384
  2 H s       :     0.810154  s :     0.810154
      pz      :     0.005957  p :     0.018168
      px      :     0.003525
      py      :     0.008687
  3 H s       :     0.810058  s :     0.810058
      pz      :     0.010348  p :     0.018170
      px      :     0.003501
      py      :     0.004321
  4 H s       :     0.804557  s :     0.804557
      pz      :     0.003859  p :     0.017739
      px      :     0.007034
      py      :     0.006846
  5 O s       :     3.712403  s :     3.712403
      pz      :     1.729698  p :     4.436226
      px      :     1.110731
      py      :     1.595797
      dz2     :     0.003552  d :     0.032237
      dxz     :     0.005049
      dyz     :     0.007006
      dx2y2   :     0.001668
      dxy     :     0.014962
  6 C s       :     3.324120  s :     3.324120
      pz      :     1.118819  p :     2.934076
      px      :     0.729762
      py      :     1.085495
      dz2     :     0.008174  d :     0.043124
      dxz     :     0.007817
      dyz     :     0.005647
      dx2y2   :     0.010026
      dxy     :     0.011460
  7 H s       :     0.808964  s :     0.808964
      pz      :     0.005974  p :     0.017675
      px      :     0.002601
      py      :     0.009100
  8 H s       :     0.828987  s :     0.828987
      pz      :     0.004190  p :     0.017521
      px      :     0.005391
      py      :     0.007940
  9 H s       :     0.808922  s :     0.808922
      pz      :     0.010960  p :     0.017676
      px      :     0.002534
      py      :     0.004181
 10 O s       :     3.829924  s :     3.829924
      pz      :     1.449526  p :     4.584297
      px      :     1.805189
      py      :     1.329581
      dz2     :     0.003746  d :     0.020261
      dxz     :     0.001216
      dyz     :     0.007993
      dx2y2   :     0.008850
      dxy     :    -0.001545
 11 O s       :     3.781663  s :     3.781663
      pz      :     1.892277  p :     4.862936
      px      :     1.588667
      py      :     1.381992
      dz2     :     0.003226  d :     0.018393
      dxz     :     0.003823
      dyz     :     0.001526
      dx2y2   :     0.006310
      dxy     :     0.003508
 12 H s       :     0.661805  s :     0.661805
      pz      :     0.014637  p :     0.046480
      px      :     0.010237
      py      :     0.021606
 13 H s       :     0.597198  s :     0.597198
      pz      :     0.012715  p :     0.047800
      px      :     0.022322
      py      :     0.012763


                     *******************************
                     * LOEWDIN POPULATION ANALYSIS *
                     *******************************

----------------------
LOEWDIN ATOMIC CHARGES
----------------------
   0 C :   -0.335394
   1 C :    0.360691
   2 H :    0.181587
   3 H :    0.181670
   4 H :    0.175780
   5 O :   -0.594054
   6 C :   -0.045421
   7 H :    0.183109
   8 H :    0.177133
   9 H :    0.183146
  10 O :   -0.454020
  11 O :   -0.531792
  12 H :    0.249230
  13 H :    0.268335

-------------------------------
LOEWDIN REDUCED ORBITAL CHARGES
-------------------------------
  0 C s       :     2.960936  s :     2.960936
      pz      :     1.146621  p :     3.317583
      px      :     1.040313
      py      :     1.130649
      dz2     :     0.013880  d :     0.056874
      dxz     :     0.004518
      dyz     :     0.010691
      dx2y2   :     0.011194
      dxy     :     0.016592
  1 C s       :     2.743097  s :     2.743097
      pz      :     0.735752  p :     2.629511
      px      :     0.947643
      py      :     0.946116
      dz2     :     0.024010  d :     0.266701
      dxz     :     0.026102
      dyz     :     0.046449
      dx2y2   :     0.066006
      dxy     :     0.104134
  2 H s       :     0.774653  s :     0.774653
      pz      :     0.014377  p :     0.043760
      px      :     0.007626
      py      :     0.021757
  3 H s       :     0.774571  s :     0.774571
      pz      :     0.026338  p :     0.043760
      px      :     0.007580
      py      :     0.009841
  4 H s       :     0.781087  s :     0.781087
      pz      :     0.008868  p :     0.043134
      px      :     0.016963
      py      :     0.017303
  5 O s       :     3.486505  s :     3.486505
      pz      :     1.707843  p :     4.657069
      px      :     1.324148
      py      :     1.625078
      dz2     :     0.055602  d :     0.450480
      dxz     :     0.092569
      dyz     :     0.039216
      dx2y2   :     0.132627
      dxy     :     0.130467
  6 C s       :     2.914432  s :     2.914432
      pz      :     1.117394  p :     3.031117
      px      :     0.823260
      py      :     1.090464
      dz2     :     0.019427  d :     0.099871
      dxz     :     0.016754
      dyz     :     0.013982
      dx2y2   :     0.021906
      dxy     :     0.027801
  7 H s       :     0.775186  s :     0.775186
      pz      :     0.014576  p :     0.041705
      px      :     0.005598
      py      :     0.021531
  8 H s       :     0.783005  s :     0.783005
      pz      :     0.009330  p :     0.039863
      px      :     0.010624
      py      :     0.019908
  9 H s       :     0.775143  s :     0.775143
      pz      :     0.027205  p :     0.041711
      px      :     0.005474
      py      :     0.009032
 10 O s       :     3.546899  s :     3.546899
      pz      :     1.450611  p :     4.676816
      px      :     1.748811
      py      :     1.477393
      dz2     :     0.030813  d :     0.230305
      dxz     :     0.016425
      dyz     :     0.049497
      dx2y2   :     0.056651
      dxy     :     0.076920
 11 O s       :     3.547717  s :     3.547717
      pz      :     1.866781  p :     4.921536
      px      :     1.597427
      py      :     1.457328
      dz2     :     0.009008  d :     0.062540
      dxz     :     0.004447
      dyz     :     0.008897
      dx2y2   :     0.024200
      dxy     :     0.015987
 12 H s       :     0.625868  s :     0.625868
      pz      :     0.037783  p :     0.124902
      px      :     0.026782
      py      :     0.060336
 13 H s       :     0.599618  s :     0.599618
      pz      :     0.032588  p :     0.132047
      px      :     0.068451
      py      :     0.031008


                      *****************************
                      * MAYER POPULATION ANALYSIS *
                      *****************************

  NA   - Mulliken gross atomic population
  ZA   - Total nuclear charge
  QA   - Mulliken gross atomic charge
  VA   - Mayer's total valence
  BVA  - Mayer's bonded valence
  FA   - Mayer's free valence

  ATOM       NA         ZA         QA         VA         BVA        FA
  0 C      6.5061     6.0000    -0.5061     3.8795     3.8795     0.0000
  1 C      5.5824     6.0000     0.4176     3.7942     3.7942     0.0000
  2 H      0.8283     1.0000     0.1717     0.9580     0.9580     0.0000
  3 H      0.8282     1.0000     0.1718     0.9580     0.9580    -0.0000
  4 H      0.8223     1.0000     0.1777     0.9588     0.9588    -0.0000
  5 O      8.1809     8.0000    -0.1809     1.9676     1.9676    -0.0000
  6 C      6.3013     6.0000    -0.3013     3.7716     3.7716    -0.0000
  7 H      0.8266     1.0000     0.1734     0.9533     0.9533     0.0000
  8 H      0.8465     1.0000     0.1535     0.9562     0.9562    -0.0000
  9 H      0.8266     1.0000     0.1734     0.9533     0.9533    -0.0000
 10 O      8.4345     8.0000    -0.4345     1.9579     1.9579     0.0000
 11 O      8.6630     8.0000    -0.6630     1.7633     1.7633    -0.0000
 12 H      0.7083     1.0000     0.2917     0.9213     0.9213    -0.0000
 13 H      0.6450     1.0000     0.3550     0.9226     0.9226    -0.0000

  Mayer bond orders larger than 0.100000
B(  0-C ,  1-C ) :   0.9665 B(  0-C ,  2-H ) :   0.9474 B(  0-C ,  3-H ) :   0.9469 
B(  0-C ,  4-H ) :   0.9867 B(  1-C ,  5-O ) :   1.0754 B(  1-C , 10-O ) :   1.7959 
B(  5-O ,  6-C ) :   0.8547 B(  6-C ,  7-H ) :   0.9542 B(  6-C ,  8-H ) :   0.9662 
B(  6-C ,  9-H ) :   0.9542 B( 11-O , 12-H ) :   0.9177 B( 11-O , 13-H ) :   0.8303 


-------
TIMINGS
-------

Total SCF time: 0 days 0 hours 0 min 3 sec 

Total time                  ....       3.330 sec
Sum of individual times     ....       3.115 sec  ( 93.6%)

Fock matrix formation       ....       2.301 sec  ( 69.1%)
  Split-RI-J                ....       0.216 sec  (  9.4% of F)
  XC integration            ....       2.076 sec  ( 90.2% of F)
    Basis function eval.    ....       0.149 sec  (  7.2% of XC)
    Density eval.           ....       0.582 sec  ( 28.0% of XC)
    XC-Functional eval.     ....       0.152 sec  (  7.3% of XC)
    XC-Potential eval.      ....       0.246 sec  ( 11.9% of XC)
Diagonalization             ....       0.017 sec  (  0.5%)
Density matrix formation    ....       0.002 sec  (  0.1%)
Population analysis         ....       0.019 sec  (  0.6%)
Initial guess               ....       0.020 sec  (  0.6%)
Orbital Transformation      ....       0.000 sec  (  0.0%)
Orbital Orthonormalization  ....       0.014 sec  (  0.4%)
DIIS solution               ....       0.008 sec  (  0.2%)
SOSCF solution              ....       0.047 sec  (  1.4%)
Grid generation             ....       0.701 sec  ( 21.0%)

Maximum memory used throughout the entire SCF-calculation: 18.6 MB


-------------------------------------------------------------------------------
                          DFT DISPERSION CORRECTION                            
                                                                               
                                 DFTD4 V2.5                                    
-------------------------------------------------------------------------------
The R2SCAN3C composite method is recognized
Using three-body term ABC
Active option DFTDOPT                   ...         5   

Starting D4
-------------------------   ----------------
Dispersion correction           -0.002715226
-------------------------   ----------------

------------------   -----------------
gCP correction             0.010785085
------------------   -----------------

-------------------------   --------------------
FINAL SINGLE POINT ENERGY      -344.767596949424
-------------------------   --------------------

[urraka:25956] mca_base_component_repository_open: unable to open mca_btl_openib: libibverbs.so.1: cannot open shared object file: No such file or directory (ignored)
[urraka:25953] mca_base_component_repository_open: unable to open mca_btl_openib: libibverbs.so.1: cannot open shared object file: No such file or directory (ignored)
[urraka:25955] mca_base_component_repository_open: unable to open mca_btl_openib: libibverbs.so.1: cannot open shared object file: No such file or directory (ignored)
[urraka:25954] mca_base_component_repository_open: unable to open mca_btl_openib: libibverbs.so.1: cannot open shared object file: No such file or directory (ignored)
[urraka:25952] mca_base_component_repository_open: unable to open mca_btl_openib: libibverbs.so.1: cannot open shared object file: No such file or directory (ignored)
[urraka:25960] mca_base_component_repository_open: unable to open mca_btl_openib: libibverbs.so.1: cannot open shared object file: No such file or directory (ignored)
[urraka:25957] mca_base_component_repository_open: unable to open mca_btl_openib: libibverbs.so.1: cannot open shared object file: No such file or directory (ignored)
[urraka:25963] mca_base_component_repository_open: unable to open mca_btl_openib: libibverbs.so.1: cannot open shared object file: No such file or directory (ignored)


           ************************************************************
           *        Program running with 8 parallel MPI-processes     *
           *              working on a common directory               *
           ************************************************************
------------------------------------------------------------------------------
                         ORCA SCF GRADIENT CALCULATION
------------------------------------------------------------------------------

Gradient of the Kohn-Sham DFT energy:
Kohn-Sham wavefunction type      ... RKS
Hartree-Fock exchange scaling    ...    0.000
Number of operators              ...    1
Number of atoms                  ...   14
Basis set dimensions             ...  169
Integral neglect threshold       ... 2.5e-11
Integral primitive cutoff        ... 2.5e-12
SHARK Integral package           ... ON

Nuc. rep. gradient       (SHARK) ... done (  0.0 sec)
HCore & Overlap gradient (SHARK) ... done (  0.1 sec)
RI-J gradient            (SHARK) ... done (  0.2 sec)
Exchange-correlation gradient    ... done
Dispersion correction            ... Starting D4
Starting D4
Starting D4
Starting D4
Starting D4
Starting D4
Starting D4
Starting D4


------------------- 
Dispersion Gradient 
------------------- 
   1  :   -0.000065260   -0.000018922   -0.000007476
   2  :   -0.000046377   -0.000015318   -0.000005996
   3  :   -0.000023520   -0.000013539    0.000003337
   4  :   -0.000023360   -0.000008183   -0.000011614
   5  :   -0.000025150    0.000001318    0.000000194
   6  :    0.000003000   -0.000032176   -0.000011309
   7  :    0.000050009   -0.000021207   -0.000006913
   8  :    0.000020625   -0.000000828   -0.000012491
   9  :    0.000028453   -0.000024956   -0.000008457
  10  :    0.000020362   -0.000008568    0.000009613
  11  :   -0.000020682    0.000023764    0.000008080
  12  :    0.000019043    0.000067672    0.000024253
  13  :    0.000014870    0.000021200    0.000007690
  14  :    0.000027756    0.000034388    0.000012483

  |G| =    0.000810412

done
gCP correction                   ... done

------------------
CARTESIAN GRADIENT
------------------

   1   C   :   -0.000011587    0.000016939   -0.000004586
   2   C   :    0.000003813   -0.000020589   -0.000011411
   3   H   :   -0.000000565   -0.000001390   -0.000004388
   4   H   :    0.000001434   -0.000004881   -0.000001337
   5   H   :    0.000003740    0.000005781   -0.000000554
   6   O   :   -0.000007312    0.000005868   -0.000001876
   7   C   :    0.000022507   -0.000024692   -0.000006657
   8   H   :   -0.000004180    0.000010547    0.000013168
   9   H   :   -0.000009592   -0.000003815   -0.000001581
  10   H   :   -0.000007121    0.000014592   -0.000003160
  11   O   :   -0.000004608    0.000020800   -0.000010318
  12   O   :   -0.000013245    0.000020171   -0.000033613
  13   H   :    0.000009682   -0.000001099   -0.000004369
  14   H   :   -0.000003198   -0.000033586    0.000072074

Difference to translation invariance:
           :   -0.0000202316    0.0000046439    0.0000013916

Difference to rotation invariance:
           :    0.0001093069   -0.0000953673   -0.0000739783

Norm of the cartesian gradient     ...    0.0001084612
RMS gradient                       ...    0.0000167359
MAX gradient                       ...    0.0000720738

-------
TIMINGS
-------

Total SCF gradient time            ...        2.636 sec

One electron gradient       ....       0.055 sec  (  2.1%)
RI-J Coulomb gradient       ....       0.229 sec  (  8.7%)
XC gradient                 ....       2.110 sec  ( 80.1%)

Maximum memory used throughout the entire SCFGRAD-calculation: 26.6 MB
------------------------------------------------------------------------------
                         ORCA GEOMETRY RELAXATION STEP
------------------------------------------------------------------------------

Reading the OPT-File                    .... done
Getting information on internals        .... done
Copying old internal coords+grads       .... done
Making the new internal coordinates     .... (new redundants).... done
Validating the new internal coordinates .... (new redundants).... done
Calculating the B-matrix                .... done
Calculating the G,G- and P matrices     .... done
Transforming gradient to internals      .... done
Projecting the internal gradient        .... done
Number of atoms                         ....  14
Number of internal coordinates          ....  72
Current Energy                          ....  -344.767596949 Eh
Current gradient norm                   ....     0.000108461 Eh/bohr
Maximum allowed component of the step   ....  0.300
Current trust radius                    ....  0.300
Evaluating the initial hessian          ....  (Almloef) done
Projecting the Hessian                  .... done
Forming the augmented Hessian           .... done
Diagonalizing the augmented Hessian     .... done
Last element of RFO vector              ....  0.999999894
Lowest eigenvalues of augmented Hessian:
 -0.000000009  0.012210782  0.012694869  0.016576716  0.028572402
Length of the computed step             ....  0.000461336
The final length of the internal step   ....  0.000461336
Converting the step to cartesian space:
 Initial RMS(Int)=    0.0000543690
Transforming coordinates:
 Iter   0:  RMS(Cart)=    0.0000731615 RMS(Int)=    0.0000543692
 Iter   1:  RMS(Cart)=    0.0000000038 RMS(Int)=    0.0000000029
done
Storing new coordinates                 .... done

                                .--------------------.
          ----------------------|Geometry convergence|-------------------------
          Item                value                   Tolerance       Converged
          ---------------------------------------------------------------------
          RMS gradient        0.0000048734            0.0000300000      YES
          MAX gradient        0.0000168443            0.0001000000      YES
          RMS step            0.0000543690            0.0006000000      YES
          MAX step            0.0001725677            0.0010000000      YES
          ........................................................
          Max(Bonds)      0.0001      Max(Angles)    0.00
          Max(Dihed)        0.01      Max(Improp)    0.00
          ---------------------------------------------------------------------

                    ***********************HURRAY********************
                    ***        THE OPTIMIZATION HAS CONVERGED     ***
                    *************************************************


    ---------------------------------------------------------------------------
                         Redundant Internal Coordinates

                          --- Optimized Parameters ---  
                            (Angstroem and degrees)

        Definition                    OldVal   dE/dq     Step     FinalVal
    ----------------------------------------------------------------------------
     1. B(C   1,C   0)                1.5019 -0.000003  0.0000    1.5019   
     2. B(H   2,C   0)                1.0940  0.000002 -0.0000    1.0940   
     3. B(H   3,C   0)                1.0941  0.000001 -0.0000    1.0941   
     4. B(H   4,C   0)                1.0893 -0.000001  0.0000    1.0893   
     5. B(O   5,C   1)                1.3431 -0.000002  0.0000    1.3431   
     6. B(C   6,O   5)                1.4484  0.000005 -0.0000    1.4484   
     7. B(H   7,C   6)                1.0929  0.000002 -0.0000    1.0929   
     8. B(H   8,C   6)                1.0897 -0.000001  0.0000    1.0897   
     9. B(H   9,C   6)                1.0930  0.000002 -0.0000    1.0930   
    10. B(O  10,C   1)                1.2149  0.000012 -0.0000    1.2149   
    11. B(H  12,O  11)                0.9609 -0.000004  0.0000    0.9609   
    12. B(H  13,H   9)                2.4475 -0.000000  0.0000    2.4475   
    13. B(H  13,H   7)                2.4537 -0.000000  0.0000    2.4537   
    14. B(H  13,O  10)                1.9779 -0.000003  0.0001    1.9780   
    15. B(H  13,O  11)                0.9696 -0.000000  0.0000    0.9696   
    16. A(H   3,C   0,H   4)          110.11  0.000006   -0.00    110.11   
    17. A(C   1,C   0,H   3)          109.83  0.000002   -0.00    109.83   
    18. A(H   2,C   0,H   4)          110.15  0.000005   -0.00    110.15   
    19. A(C   1,C   0,H   4)          109.57 -0.000008    0.00    109.58   
    20. A(C   1,C   0,H   2)          109.86 -0.000002    0.00    109.86   
    21. A(H   2,C   0,H   3)          107.28 -0.000003    0.00    107.28   
    22. A(C   0,C   1,O   5)          111.19  0.000010   -0.00    111.19   
    23. A(O   5,C   1,O  10)          124.06  0.000003   -0.00    124.06   
    24. A(C   0,C   1,O  10)          124.75 -0.000013    0.00    124.76   
    25. A(C   1,O   5,C   6)          115.89 -0.000000    0.00    115.89   
    26. A(H   8,C   6,H   9)          110.72  0.000007   -0.00    110.72   
    27. A(O   5,C   6,H   9)          110.52  0.000001    0.00    110.53   
    28. A(H   7,C   6,H   8)          110.73  0.000007   -0.00    110.72   
    29. A(H   7,C   6,H   9)          109.07 -0.000011    0.00    109.08   
    30. A(O   5,C   6,H   8)          105.24 -0.000003    0.00    105.24   
    31. A(O   5,C   6,H   7)          110.52 -0.000001    0.00    110.52   
    32. A(C   6,H   7,H  13)           98.36  0.000007   -0.00     98.35   
    33. A(C   6,H   9,H  13)           98.71  0.000007   -0.00     98.70   
    34. A(C   1,O  10,H  13)          135.49 -0.000002   -0.00    135.49   
    35. A(H  12,O  11,H  13)          104.41  0.000017   -0.00    104.41   
    36. A(H   9,H  13,O  10)           73.45  0.000000   -0.00     73.45   
    37. A(H   7,H  13,O  10)           73.31  0.000001   -0.00     73.31   
    38. A(O  10,H  13,O  11)          170.74 -0.000002    0.00    170.74   
    39. A(H   7,H  13,H   9)           42.60 -0.000002    0.00     42.60   
    40. A(H   9,H  13,O  11)           98.05 -0.000002    0.00     98.05   
    41. A(H   7,H  13,O  11)           98.01 -0.000003    0.00     98.01   
    42. D(O  10,C   1,C   0,H   2)   -121.45  0.000001   -0.01   -121.46   
    43. D(O   5,C   1,C   0,H   2)     58.56  0.000000   -0.01     58.56   
    44. D(O   5,C   1,C   0,H   3)    -59.21  0.000004   -0.01    -59.22   
    45. D(O  10,C   1,C   0,H   4)     -0.31  0.000001   -0.01     -0.31   
    46. D(O   5,C   1,C   0,H   4)    179.71  0.000000   -0.01    179.70   
    47. D(O  10,C   1,C   0,H   3)    120.77  0.000005   -0.01    120.76   
    48. D(C   6,O   5,C   1,C   0)    179.94 -0.000000   -0.00    179.94   
    49. D(C   6,O   5,C   1,O  10)     -0.05 -0.000001   -0.00     -0.05   
    50. D(H   9,C   6,O   5,C   1)     60.44 -0.000008    0.00     60.44   
    51. D(H   8,C   6,O   5,C   1)   -179.98 -0.000000    0.00   -179.98   
    52. D(H   7,C   6,O   5,C   1)    -60.41  0.000006   -0.00    -60.41   
    53. D(H  13,H   7,C   6,H   8)   -154.49 -0.000004    0.00   -154.49   
    54. D(H  13,H   7,C   6,O   5)     89.30 -0.000003    0.00     89.30   
    55. D(H  13,H   7,C   6,H   9)    -32.40  0.000003   -0.00    -32.40   
    56. D(H  13,H   9,C   6,O   5)    -89.17  0.000005   -0.00    -89.17   
    57. D(H  13,H   9,C   6,H   8)    154.61  0.000004   -0.00    154.61   
    58. D(H  13,H   9,C   6,H   7)     32.53 -0.000003    0.00     32.53   
    59. D(H  13,O  10,C   1,O   5)     -0.29  0.000003   -0.00     -0.29   
    60. D(H  13,O  10,C   1,C   0)    179.73  0.000003   -0.00    179.73   
    61. D(H   9,H  13,O  11,H  12)   -158.57 -0.000004    0.00   -158.57   
    62. D(H   7,H  13,O  11,H  12)    158.38 -0.000002   -0.00    158.38   
    63. D(H   9,H  13,O  10,C   1)    -21.94 -0.000001    0.00    -21.94   
    64. D(O  11,H  13,O  10,C   1)      1.87  0.000005    0.00      1.87   
    65. D(O  10,H  13,H   9,C   6)     63.60  0.000000   -0.00     63.60   
    66. D(H   7,H  13,H   9,C   6)    -19.54 -0.000001    0.00    -19.54   
    67. D(H   7,H  13,O  10,C   1)     22.62 -0.000004    0.00     22.62   
    68. D(O  11,H  13,H   9,C   6)   -112.64  0.000002   -0.00   -112.64   
    69. D(O  10,H  13,H   7,C   6)    -63.98  0.000000   -0.00    -63.98   
    70. D(H   9,H  13,H   7,C   6)     19.52  0.000001   -0.00     19.52   
    71. D(O  10,H  13,O  11,H  12)    178.43 -0.000010    0.00    178.43   
    72. D(O  11,H  13,H   7,C   6)    112.72  0.000001   -0.00    112.72   
    ----------------------------------------------------------------------------
                 *******************************************************
                 *** FINAL ENERGY EVALUATION AT THE STATIONARY POINT ***
                 ***               (AFTER    1 CYCLES)               ***
                 *******************************************************
---------------------------------
CARTESIAN COORDINATES (ANGSTROEM)
---------------------------------
  C     -3.911460   -0.281863   -0.076563
  C     -2.548938    0.308723    0.148242
  H     -4.033179   -1.179561    0.536735
  H     -4.016255   -0.585938   -1.122298
  H     -4.674271    0.452889    0.178133
  O     -1.581910   -0.574186   -0.150307
  C     -0.222480   -0.107863    0.029300
  H     -0.027371    0.758590   -0.607661
  H      0.408965   -0.948076   -0.258537
  H     -0.046765    0.168524    1.072038
  O     -2.340415    1.437021    0.547566
  O      0.136211    2.918084    1.105097
  H     -0.062679    3.805238    1.415997
  H     -0.732543    2.515017    0.953859

----------------------------
CARTESIAN COORDINATES (A.U.)
----------------------------
  NO LB      ZA    FRAG     MASS         X           Y           Z
   0 C     6.0000    0    12.011   -7.391588   -0.532644   -0.144684
   1 C     6.0000    0    12.011   -4.816794    0.583402    0.280137
   2 H     1.0000    0     1.008   -7.621604   -2.229048    1.014283
   3 H     1.0000    0     1.008   -7.589622   -1.107262   -2.120837
   4 H     1.0000    0     1.008   -8.833093    0.855837    0.336623
   5 O     8.0000    0    15.999   -2.989377   -1.085055   -0.284039
   6 C     6.0000    0    12.011   -0.420425   -0.203832    0.055369
   7 H     1.0000    0     1.008   -0.051723    1.433528   -1.148314
   8 H     1.0000    0     1.008    0.772832   -1.791604   -0.488565
   9 H     1.0000    0     1.008   -0.088374    0.318465    2.025858
  10 O     8.0000    0    15.999   -4.422744    2.715576    1.034749
  11 O     8.0000    0    15.999    0.257401    5.514380    2.088330
  12 H     1.0000    0     1.008   -0.118446    7.190857    2.675847
  13 H     1.0000    0     1.008   -1.384305    4.752694    1.802533

--------------------------------
INTERNAL COORDINATES (ANGSTROEM)
--------------------------------
 C      0   0   0     0.000000000000     0.00000000     0.00000000
 C      1   0   0     1.501930433143     0.00000000     0.00000000
 H      1   2   0     1.093989460200   109.85788950     0.00000000
 H      1   2   3     1.094077394293   109.83081935   242.22082366
 H      1   2   3     1.089317833052   109.57511529   121.14241359
 O      2   1   3     1.343057248619   111.18739127    58.55631387
 C      6   2   1     1.448366970513   115.88626880   179.94023935
 H      7   6   2     1.092945059844   110.51964259   299.59387267
 H      7   6   2     1.089738520992   105.24035165   180.01748538
 H      7   6   2     1.092962955376   110.52542431    60.44178606
 O      2   1   3     1.214906382013   124.75640660   238.54302165
 O     10   7   6     2.755839868018   105.92757795   251.29419600
 H     12  10   7     0.960862813487   155.68875066   130.82468575
 H     12  10   7     0.969571432817    61.56687439    71.57034970

---------------------------
INTERNAL COORDINATES (A.U.)
---------------------------
 C      0   0   0     0.000000000000     0.00000000     0.00000000
 C      1   0   0     2.838237190843     0.00000000     0.00000000
 H      1   2   0     2.067340473174   109.85788950     0.00000000
 H      1   2   3     2.067506644529   109.83081935   242.22082366
 H      1   2   3     2.058512377264   109.57511529   121.14241359
 O      2   1   3     2.538010382067   111.18739127    58.55631387
 C      6   2   1     2.737016915688   115.88626880   179.94023935
 H      7   6   2     2.065366842526   110.51964259   299.59387267
 H      7   6   2     2.059307362258   105.24035165   180.01748538
 H      7   6   2     2.065400660183   110.52542431    60.44178606
 O      2   1   3     2.295840340357   124.75640660   238.54302165
 O     10   7   6     5.207782619496   105.92757795   251.29419600
 H     12  10   7     1.815767569759   155.68875066   130.82468575
 H     12  10   7     1.832224475297    61.56687439    71.57034970

---------------------
BASIS SET INFORMATION
---------------------
There are 3 groups of distinct atoms

 Group   1 Type C   : 11s6p1d contracted to 5s3p1d pattern {62111/411/1}
 Group   2 Type H   : 4s1p contracted to 2s1p pattern {31/1}
 Group   3 Type O   : 11s6p2d contracted to 5s3p2d pattern {62111/411/11}

Atom   0C    basis set group =>   1
Atom   1C    basis set group =>   1
Atom   2H    basis set group =>   2
Atom   3H    basis set group =>   2
Atom   4H    basis set group =>   2
Atom   5O    basis set group =>   3
Atom   6C    basis set group =>   1
Atom   7H    basis set group =>   2
Atom   8H    basis set group =>   2
Atom   9H    basis set group =>   2
Atom  10O    basis set group =>   3
Atom  11O    basis set group =>   3
Atom  12H    basis set group =>   2
Atom  13H    basis set group =>   2
---------------------------------
AUXILIARY/J BASIS SET INFORMATION
---------------------------------
There are 3 groups of distinct atoms

 Group   1 Type C   : 8s3p3d contracted to 6s3p3d pattern {311111/111/111}
 Group   2 Type H   : 5s2p1d contracted to 3s1p1d pattern {311/2/1}
 Group   3 Type O   : 8s3p3d contracted to 6s3p3d pattern {311111/111/111}

Atom   0C    basis set group =>   1
Atom   1C    basis set group =>   1
Atom   2H    basis set group =>   2
Atom   3H    basis set group =>   2
Atom   4H    basis set group =>   2
Atom   5O    basis set group =>   3
Atom   6C    basis set group =>   1
Atom   7H    basis set group =>   2
Atom   8H    basis set group =>   2
Atom   9H    basis set group =>   2
Atom  10O    basis set group =>   3
Atom  11O    basis set group =>   3
Atom  12H    basis set group =>   2
[...]
     26       0.106862  -0.035420   0.021674  -0.018492  -0.058695   0.104036
     27      -0.397707  -0.297399   0.082609  -0.077192  -0.370305   0.352871
     28       0.200050   0.056143   0.009451  -0.002312  -0.094387   0.061056
     29      -0.056790   0.033983  -0.019452   0.016174   0.100093  -0.090323
     30       0.011169  -0.052965   0.007653  -0.007749   0.008353  -0.007308
     31      -0.039109  -0.010992  -0.010439  -0.020584   0.014370  -0.011414
     32      -0.013622  -0.004612  -0.003587  -0.007316   0.003488  -0.005976
     33       0.001403   0.005632  -0.000748   0.000572   0.000584  -0.000517
     34      -0.000346   0.001660  -0.000273  -0.000167  -0.000447   0.000378
     35      -0.000103   0.000629  -0.000092  -0.000054  -0.000124   0.000162
     36      -0.011096  -0.031114   0.003530  -0.005597  -0.006456   0.005760
     37      -0.002298  -0.004415   0.000439  -0.001008  -0.001364   0.001279
     38      -0.000933  -0.001942   0.000212  -0.000412  -0.000639   0.000374
     39      -0.000237  -0.011452   0.002836  -0.001476  -0.002095   0.001882
     40       0.002613   0.006659  -0.000659   0.003559   0.006057  -0.004342
     41       0.000999   0.002833  -0.000324   0.001240   0.000357  -0.003302
                 30         31         32         33         34         35    
      0       0.000039   0.001966   0.000838   0.046059   0.008225   0.036566
      1      -0.000454   0.000595   0.000920   0.051805   0.007852   0.031593
      2       0.001316   0.000224   0.000331   0.018747   0.002959   0.011981
      3      -0.000216  -0.009789  -0.001375  -0.166131   0.001163  -0.001889
      4      -0.000955  -0.006238  -0.014180  -0.654334  -0.001848   0.000715
      5       0.002718  -0.002315  -0.004998  -0.232200  -0.000634   0.000235
      6       0.026338  -0.000563   0.000588   0.082717  -0.014860  -0.063892
      7      -0.007633  -0.004361   0.002748   0.107955  -0.118448  -0.499944
      8      -0.004949  -0.007047   0.003384   0.127027   0.083399   0.350927
      9      -0.026479  -0.000611   0.000595   0.082523  -0.012687  -0.054746
     10       0.008864  -0.007882   0.004237   0.162945  -0.038838  -0.164825
     11       0.000691   0.002656  -0.000857  -0.028139  -0.140752  -0.593650
     12       0.000504   0.007052  -0.006715  -0.191481  -0.067828  -0.296929
     13       0.012828   0.004730  -0.006692  -0.202078   0.066119   0.293608
     14      -0.035582   0.001795  -0.002457  -0.074200   0.022943   0.101938
     15      -0.000034   0.010453  -0.000857  -0.004083  -0.002382   0.000397
     16      -0.004115  -0.018823   0.000700   0.050723   0.000108  -0.000001
     17       0.011964  -0.006396   0.000238   0.017784   0.000006   0.000006
     18      -0.000297   0.009571   0.002686  -0.025960  -0.036650   0.008876
     19      -0.017095  -0.046760  -0.003809  -0.014566  -0.020754   0.004787
     20       0.049826  -0.016023  -0.001235  -0.005456  -0.007653   0.001769
     21       0.413037   0.045027  -0.007373   0.128200   0.098955  -0.023636
     22      -0.229764   0.366604   0.030070  -0.078094   0.474600  -0.112104
     23      -0.145436   0.528404   0.036576  -0.015754  -0.358593   0.084654
     24       0.007987  -0.306345  -0.019614   0.198433   0.269737  -0.063736
     25       0.235684  -0.233454  -0.015404   0.127016  -0.362484   0.086139
     26      -0.670352  -0.089744  -0.006217   0.047214  -0.124171   0.029509
     27      -0.415938   0.048587  -0.007273   0.128503   0.088074  -0.021059
     28       0.265536   0.619359   0.047247  -0.071871   0.145154  -0.034322
     29       0.024823  -0.181727  -0.009941  -0.033811   0.577755  -0.136451
     30       0.000048   0.000452  -0.000888   0.086242   0.000149  -0.000053
     31       0.000222   0.011701   0.009624   0.406753   0.000617  -0.000677
     32      -0.000641   0.004118   0.003356   0.144119   0.000221  -0.000234
     33       0.000038   0.005709  -0.058313   0.012612   0.000012  -0.000083
     34       0.000146  -0.001857   0.030932  -0.002812  -0.000318   0.000043
     35      -0.000445  -0.000593   0.010309  -0.000884  -0.000115   0.000014
     36      -0.000302  -0.060368   0.640493  -0.098345  -0.000649   0.000091
     37       0.000862  -0.011773   0.123554  -0.018398   0.000869  -0.000232
     38      -0.002638  -0.004811   0.050115  -0.007573   0.000301  -0.000082
     39      -0.000315  -0.017299   0.326919  -0.094681  -0.000658   0.000787
     40      -0.006425   0.033702  -0.637187   0.109180   0.002306  -0.000255
     41       0.019009   0.011889  -0.220932   0.037986   0.000835  -0.000088
                 36         37         38         39         40         41    
      0       0.001083   0.000008  -0.001161   0.047337   0.000017  -0.000014
      1       0.030918   0.000053   0.001890  -0.076309   0.000373  -0.000114
      2      -0.086358  -0.000189   0.000655  -0.026624   0.000130  -0.000040
      3      -0.000007   0.000001  -0.000892  -0.000237   0.000838  -0.000263
      4       0.000312  -0.000084  -0.000754  -0.002657  -0.002905   0.000952
      5      -0.000880   0.000271  -0.000274  -0.000952  -0.001010   0.000331
      6      -0.079085   0.000326  -0.000664   0.039542   0.001068  -0.000350
      7      -0.585471   0.000506  -0.005371   0.242286   0.000970  -0.000271
      8       0.385957  -0.000100   0.004138  -0.179340   0.000046  -0.000001
      9       0.068120  -0.000327  -0.000553   0.034704   0.001040  -0.000342
     10       0.206187  -0.000313  -0.001491   0.072584   0.000757  -0.000209
     11       0.667956  -0.000330  -0.006515   0.290971   0.000570  -0.000165
     12      -0.001870  -0.000090   0.014928  -0.629589  -0.000868   0.000273
     13       0.007444   0.000130  -0.014588   0.605517  -0.000133   0.000080
     14      -0.014618  -0.000051  -0.005057   0.209854  -0.000057   0.000033
     15       0.000003  -0.000009  -0.000092  -0.000287  -0.000751   0.000250
     16      -0.000041  -0.000195   0.000421   0.000272   0.000584  -0.000218
     17       0.000103   0.000533   0.000147   0.000086   0.000195  -0.000073
     18       0.000002   0.000801   0.033389   0.000316   0.000487  -0.000186
     19      -0.000004   0.032140  -0.084152  -0.002058  -0.000131  -0.000079
     20       0.000021  -0.089803  -0.029812  -0.000719  -0.000039  -0.000034
     21      -0.000375  -0.113082   0.058117   0.002414   0.000395   0.000025
     22      -0.000361  -0.565395   0.249648   0.007975   0.000744   0.000516
     23       0.000070   0.406508  -0.206431  -0.006408   0.000393  -0.000889
     24       0.000010   0.003550  -0.499774  -0.010669  -0.000966   0.000297
     25       0.000045   0.000786   0.680857   0.014653   0.000880  -0.000194
     26      -0.000145  -0.016754   0.233265   0.005024   0.000287  -0.000060
     27       0.000348   0.100101   0.053324   0.002225   0.000413   0.000003
     28       0.000215   0.185425   0.067656   0.002196   0.000849  -0.000151
     29       0.000187   0.669697   0.326885   0.010034   0.000193   0.001040
     30       0.000001  -0.000001   0.000249   0.000008  -0.000154  -0.000002
     31       0.000015  -0.000032   0.000375   0.001005   0.001490  -0.000551
     32      -0.000063   0.000068   0.000135   0.000353   0.000526  -0.000197
     33      -0.000004   0.000003   0.000120   0.000090  -0.055130   0.005434
     34       0.000013  -0.000006  -0.000160   0.000011  -0.009390   0.062189
     35      -0.000039   0.000034  -0.000057   0.000008  -0.003885   0.021994
     36      -0.000005  -0.000021  -0.000425   0.000066   0.030323   0.176476
     37       0.000024  -0.000225   0.000645   0.000045  -0.276362  -0.888178
     38      -0.000068   0.000708   0.000228   0.000019  -0.097190  -0.311474
     39       0.000019   0.000020  -0.002751  -0.000686   0.841995  -0.261062
     40       0.000049   0.000200   0.001743  -0.000235   0.420142  -0.095497
     41      -0.000114  -0.000647   0.000604  -0.000086   0.156906  -0.036359


-----------
IR SPECTRUM
-----------

 Mode   freq       eps      Int      T**2         TX        TY        TZ
       cm**-1   L/(mol*cm) km/mol    a.u.
----------------------------------------------------------------------------
  7:     21.06   0.000044    0.22  0.000647  (-0.000052 -0.008425  0.023992)
  8:     91.76   0.001902    9.61  0.006468  (-0.053372 -0.054921 -0.024570)
  9:     95.46   0.021371  108.00  0.069862  ( 0.003755  0.089154 -0.248797)
 10:    141.17   0.000638    3.22  0.001411  (-0.017678 -0.029368 -0.015350)
 11:    181.81   0.001445    7.30  0.002479  (-0.000760 -0.016713  0.046900)
 12:    203.86   0.000646    3.26  0.000989  ( 0.000712  0.011299 -0.029339)
 13:    292.70   0.002772   14.01  0.002956  ( 0.028557 -0.043755 -0.015021)
 14:    342.08   0.026024  131.51  0.023740  (-0.087429 -0.119120 -0.043667)
 15:    436.31   0.001483    7.50  0.001061  ( 0.030689  0.010183  0.003913)
 16:    516.75   0.012513   63.24  0.007557  (-0.000903 -0.029015  0.081940)
 17:    604.20   0.001686    8.52  0.000871  ( 0.000283  0.009885 -0.027806)
 18:    646.73   0.000655    3.31  0.000316  (-0.016954 -0.004996 -0.001934)
 19:    862.61   0.002648   13.38  0.000958  (-0.001913 -0.029137 -0.010264)
 20:    981.66   0.000622    3.14  0.000198  (-0.011603 -0.007488 -0.002668)
 21:   1055.98   0.001381    6.98  0.000408  (-0.000148  0.006588 -0.019096)
 22:   1058.37   0.012874   65.06  0.003796  ( 0.061473 -0.004043 -0.000755)
 23:   1160.29   0.000089    0.45  0.000024  ( 0.000078  0.001564 -0.004637)
 24:   1211.72   0.000048    0.24  0.000012  (-0.001003 -0.003179 -0.001118)
 25:   1279.17   0.053161  268.65  0.012969  ( 0.104880 -0.042253 -0.013553)
 26:   1387.60   0.010960   55.39  0.002465  (-0.049569 -0.002328 -0.001505)
 27:   1460.19   0.003726   18.83  0.000796  (-0.001779  0.026586  0.009286)
 28:   1467.04   0.003519   17.78  0.000749  (-0.020621 -0.006625 -0.016715)
 29:   1467.17   0.003180   16.07  0.000676  ( 0.018726  0.014579 -0.010636)
 30:   1482.13   0.002939   14.85  0.000619  ( 0.000339  0.008157 -0.023496)
 31:   1487.27   0.004935   24.94  0.001036  (-0.021377  0.022816  0.007618)
 32:   1669.83   0.013849   69.99  0.002588  ( 0.032463 -0.037024 -0.012790)
 33:   1769.43   0.061415  310.37  0.010831  (-0.008082 -0.097835 -0.034561)
 34:   3038.65   0.003048   15.40  0.000313  (-0.017641  0.001310  0.000258)
 35:   3040.91   0.000509    2.57  0.000052  ( 0.006735  0.002433  0.000972)
 36:   3119.19   0.000222    1.12  0.000022  ( 0.000131  0.001674 -0.004400)
 37:   3133.80   0.001404    7.09  0.000140  ( 0.000113  0.004046 -0.011109)
 38:   3161.29   0.001586    8.01  0.000157  ( 0.007063 -0.009749 -0.003407)
 39:   3167.77   0.000569    2.88  0.000056  ( 0.006297 -0.003816 -0.001352)
 40:   3706.55   0.063584  321.33  0.005353  ( 0.051291  0.048978  0.017992)
 41:   3902.03   0.020505  103.62  0.001640  (-0.017485 -0.034364 -0.012379)

* The epsilon (eps) is given for a Dirac delta lineshape.
** The dipole moment derivative (T) already includes vibrational overlap.

The first frequency considered to be a vibration is 7
The total number of vibrations considered is 35


--------------------------
THERMOCHEMISTRY AT 298.15K
--------------------------

Temperature         ... 298.15 K
Pressure            ... 1.00 atm
Total Mass          ... 92.09 AMU

Throughout the following assumptions are being made:
  (1) The electronic state is orbitally nondegenerate
  (2) There are no thermally accessible electronically excited states
  (3) Hindered rotations indicated by low frequency modes are not
      treated as such but are treated as vibrations and this may
      cause some error
  (4) All equations used are the standard statistical mechanics
      equations for an ideal gas
  (5) All vibrations are strictly harmonic

freq.      21.06  E(vib)   ...       0.56 
freq.      91.76  E(vib)   ...       0.47 
freq.      95.46  E(vib)   ...       0.47 
freq.     141.17  E(vib)   ...       0.41 
freq.     181.81  E(vib)   ...       0.37 
freq.     203.86  E(vib)   ...       0.35 
freq.     292.70  E(vib)   ...       0.27 
freq.     342.08  E(vib)   ...       0.23 
freq.     436.31  E(vib)   ...       0.17 
freq.     516.75  E(vib)   ...       0.13 
freq.     604.20  E(vib)   ...       0.10 
freq.     646.73  E(vib)   ...       0.09 
freq.     862.61  E(vib)   ...       0.04 
freq.     981.66  E(vib)   ...       0.02 
freq.    1055.98  E(vib)   ...       0.02 
freq.    1058.37  E(vib)   ...       0.02 
freq.    1160.29  E(vib)   ...       0.01 
freq.    1211.72  E(vib)   ...       0.01 
freq.    1279.17  E(vib)   ...       0.01 
freq.    1387.60  E(vib)   ...       0.00 
freq.    1460.19  E(vib)   ...       0.00 
freq.    1467.04  E(vib)   ...       0.00 
freq.    1467.17  E(vib)   ...       0.00 
freq.    1482.13  E(vib)   ...       0.00 
freq.    1487.27  E(vib)   ...       0.00 
freq.    1669.83  E(vib)   ...       0.00 
freq.    1769.43  E(vib)   ...       0.00 
freq.    3038.65  E(vib)   ...       0.00 
freq.    3040.91  E(vib)   ...       0.00 
freq.    3119.19  E(vib)   ...       0.00 
freq.    3133.80  E(vib)   ...       0.00 
freq.    3161.29  E(vib)   ...       0.00 
freq.    3167.77  E(vib)   ...       0.00 
freq.    3706.55  E(vib)   ...       0.00 
freq.    3902.03  E(vib)   ...       0.00 

------------
INNER ENERGY
------------

The inner energy is: U= E(el) + E(ZPE) + E(vib) + E(rot) + E(trans)
    E(el)   - is the total energy from the electronic structure calculation
              = E(kin-el) + E(nuc-el) + E(el-el) + E(nuc-nuc)
    E(ZPE)  - the the zero temperature vibrational energy from the frequency calculation
    E(vib)  - the the finite temperature correction to E(ZPE) due to population
              of excited vibrational states
    E(rot)  - is the rotational thermal energy
    E(trans)- is the translational thermal energy

Summary of contributions to the inner energy U:
Electronic energy                ...   -344.76759696 Eh
Zero point energy                ...      0.11309858 Eh      70.97 kcal/mol
Thermal vibrational correction   ...      0.00602317 Eh       3.78 kcal/mol
Thermal rotational correction    ...      0.00141627 Eh       0.89 kcal/mol
Thermal translational correction ...      0.00141627 Eh       0.89 kcal/mol
-----------------------------------------------------------------------
Total thermal energy                   -344.64564267 Eh


Summary of corrections to the electronic energy:
(perhaps to be used in another calculation)
Total thermal correction                  0.00885571 Eh       5.56 kcal/mol
Non-thermal (ZPE) correction              0.11309858 Eh      70.97 kcal/mol
-----------------------------------------------------------------------
Total correction                          0.12195430 Eh      76.53 kcal/mol


--------
ENTHALPY
--------

The enthalpy is H = U + kB*T
                kB is Boltzmann's constant
Total free energy                 ...   -344.64564267 Eh 
Thermal Enthalpy correction       ...      0.00094421 Eh       0.59 kcal/mol
-----------------------------------------------------------------------
Total Enthalpy                    ...   -344.64469846 Eh


Note: Only C1 symmetry has been detected, increase convergence thresholds 
      if your molecule has a higher symmetry. Symmetry factor of 1.0 is   
      used for the rotational entropy correction. 
 

Note: Rotational entropy computed according to Herzberg 
Infrared and Raman Spectra, Chapter V,1, Van Nostrand Reinhold, 1945 
Point Group:  C1, Symmetry Number:   1  
Rotational constants in cm-1:     0.173191     0.061837     0.046360 

Vibrational entropy computed according to the QRRHO of S. Grimme
Chem.Eur.J. 2012 18 9955


-------
ENTROPY
-------

The entropy contributions are T*S = T*(S(el)+S(vib)+S(rot)+S(trans))
     S(el)   - electronic entropy
     S(vib)  - vibrational entropy
     S(rot)  - rotational entropy
     S(trans)- translational entropy
The entropies will be listed as multiplied by the temperature to get
units of energy

Electronic entropy                ...      0.00000000 Eh      0.00 kcal/mol
Vibrational entropy               ...      0.01118110 Eh      7.02 kcal/mol
Rotational entropy                ...      0.01310244 Eh      8.22 kcal/mol
Translational entropy             ...      0.01875460 Eh     11.77 kcal/mol
-----------------------------------------------------------------------
Final entropy term                ...      0.04303814 Eh     27.01 kcal/mol

In case the symmetry of your molecule has not been determined correctly
or in case you have a reason to use a different symmetry number we print 
out the resulting rotational entropy values for sn=1,12 :
 --------------------------------------------------------
|  sn= 1 | S(rot)=       0.01310244 Eh      8.22 kcal/mol|
|  sn= 2 | S(rot)=       0.01244799 Eh      7.81 kcal/mol|
|  sn= 3 | S(rot)=       0.01206515 Eh      7.57 kcal/mol|
|  sn= 4 | S(rot)=       0.01179353 Eh      7.40 kcal/mol|
|  sn= 5 | S(rot)=       0.01158284 Eh      7.27 kcal/mol|
|  sn= 6 | S(rot)=       0.01141070 Eh      7.16 kcal/mol|
|  sn= 7 | S(rot)=       0.01126515 Eh      7.07 kcal/mol|
|  sn= 8 | S(rot)=       0.01113907 Eh      6.99 kcal/mol|
|  sn= 9 | S(rot)=       0.01102787 Eh      6.92 kcal/mol|
|  sn=10 | S(rot)=       0.01092839 Eh      6.86 kcal/mol|
|  sn=11 | S(rot)=       0.01083840 Eh      6.80 kcal/mol|
|  sn=12 | S(rot)=       0.01075624 Eh      6.75 kcal/mol|
 --------------------------------------------------------


-------------------
GIBBS FREE ENERGY
-------------------

The Gibbs free energy is G = H - T*S

Total enthalpy                    ...   -344.64469846 Eh 
Total entropy correction          ...     -0.04303814 Eh    -27.01 kcal/mol
-----------------------------------------------------------------------
Final Gibbs free energy         ...   -344.68773659 Eh

For completeness - the Gibbs free energy minus the electronic energy
G-E(el)                           ...      0.07986037 Eh     50.11 kcal/mol

[urraka:26166] mca_base_component_repository_open: unable to open mca_btl_openib: libibverbs.so.1: cannot open shared object file: No such file or directory (ignored)
[urraka:26167] mca_base_component_repository_open: unable to open mca_btl_openib: libibverbs.so.1: cannot open shared object file: No such file or directory (ignored)
[urraka:26165] mca_base_component_repository_open: unable to open mca_btl_openib: libibverbs.so.1: cannot open shared object file: No such file or directory (ignored)
[urraka:26164] mca_base_component_repository_open: unable to open mca_btl_openib: libibverbs.so.1: cannot open shared object file: No such file or directory (ignored)
[urraka:26170] mca_base_component_repository_open: unable to open mca_btl_openib: libibverbs.so.1: cannot open shared object file: No such file or directory (ignored)
[urraka:26169] mca_base_component_repository_open: unable to open mca_btl_openib: libibverbs.so.1: cannot open shared object file: No such file or directory (ignored)
[urraka:26173] mca_base_component_repository_open: unable to open mca_btl_openib: libibverbs.so.1: cannot open shared object file: No such file or directory (ignored)
[urraka:26175] mca_base_component_repository_open: unable to open mca_btl_openib: libibverbs.so.1: cannot open shared object file: No such file or directory (ignored)

Timings for individual modules:

Sum of individual times         ...      142.974 sec (=   2.383 min)
GTO integral calculation        ...        1.571 sec (=   0.026 min)   1.1 %
SCF iterations                  ...        8.760 sec (=   0.146 min)   6.1 %
SCF Gradient evaluation         ...        3.300 sec (=   0.055 min)   2.3 %
Geometry relaxation             ...        0.047 sec (=   0.001 min)   0.0 %
Analytical frequency calculation...      129.296 sec (=   2.155 min)  90.4 %
                             ****ORCA TERMINATED NORMALLY****
TOTAL RUN TIME: 0 days 0 hours 2 minutes 23 seconds 889 msec
