
                                 *****************
                                 * O   R   C   A *
                                 *****************

                                            #,                                       
                                            ###                                      
                                            ####                                     
                                            #####                                    
                                            ######                                   
                                           ########,                                 
                                     ,,################,,,,,                         
                               ,,#################################,,                 
                          ,,##########################################,,             
                       ,#########################################, ''#####,          
                    ,#############################################,,   '####,        
                  ,##################################################,,,,####,       
                ,###########''''           ''''###############################       
              ,#####''   ,,,,##########,,,,          '''####'''          '####       
            ,##' ,,,,###########################,,,                        '##       
           ' ,,###''''                  '''############,,,                           
         ,,##''                                '''############,,,,        ,,,,,,###''
      ,#''                                            '''#######################'''  
     '                                                          ''''####''''         
             ,#######,   #######,   ,#######,      ##                                
            ,#'     '#,  ##    ##  ,#'     '#,    #''#        ######   ,####,        
            ##       ##  ##   ,#'  ##            #'  '#       #        #'  '#        
            ##       ##  #######   ##           ,######,      #####,   #    #        
            '#,     ,#'  ##    ##  '#,     ,#' ,#      #,         ##   #,  ,#        
             '#######'   ##     ##  '#######'  #'      '#     #####' # '####'        



                  #######################################################
                  #                        -***-                        #
                  #          Department of theory and spectroscopy      #
                  #    Directorship and core code : Frank Neese         #
                  #        Max Planck Institute fuer Kohlenforschung    #
                  #                Kaiser Wilhelm Platz 1               #
                  #                 D-45470 Muelheim/Ruhr               #
                  #                      Germany                        #
                  #                                                     #
                  #                  All rights reserved                #
                  #                        -***-                        #
                  #######################################################


                         Program Version 5.0.3 -  RELEASE  -


 With contributions from (in alphabetic order):
   Daniel Aravena         : Magnetic Suceptibility
   Michael Atanasov       : Ab Initio Ligand Field Theory (pilot matlab implementation)
   Alexander A. Auer      : GIAO ZORA, VPT2 properties, NMR spectrum
   Ute Becker             : Parallelization
   Giovanni Bistoni       : ED, misc. LED, open-shell LED, HFLD
   Martin Brehm           : Molecular dynamics
   Dmytro Bykov           : SCF Hessian
   Vijay G. Chilkuri      : MRCI spin determinant printing, contributions to CSF-ICE
   Dipayan Datta          : RHF DLPNO-CCSD density
   Achintya Kumar Dutta   : EOM-CC, STEOM-CC
   Dmitry Ganyushin       : Spin-Orbit,Spin-Spin,Magnetic field MRCI
   Miquel Garcia          : C-PCM and meta-GGA Hessian, CC/C-PCM, Gaussian charge scheme
   Yang Guo               : DLPNO-NEVPT2, F12-NEVPT2, CIM, IAO-localization
   Andreas Hansen         : Spin unrestricted coupled pair/coupled cluster methods
   Benjamin Helmich-Paris : MC-RPA, TRAH-SCF, COSX integrals
   Lee Huntington         : MR-EOM, pCC
   Robert Izsak           : Overlap fitted RIJCOSX, COSX-SCS-MP3, EOM
   Marcus Kettner         : VPT2
   Christian Kollmar      : KDIIS, OOCD, Brueckner-CCSD(T), CCSD density, CASPT2, CASPT2-K
   Simone Kossmann        : Meta GGA functionals, TD-DFT gradient, OOMP2, MP2 Hessian
   Martin Krupicka        : Initial AUTO-CI
   Lucas Lang             : DCDCAS
   Marvin Lechner         : AUTO-CI (C++ implementation), FIC-MRCC
   Dagmar Lenk            : GEPOL surface, SMD
   Dimitrios Liakos       : Extrapolation schemes; Compound Job, initial MDCI parallelization
   Dimitrios Manganas     : Further ROCIS development; embedding schemes
   Dimitrios Pantazis     : SARC Basis sets
   Anastasios Papadopoulos: AUTO-CI, single reference methods and gradients
   Taras Petrenko         : DFT Hessian,TD-DFT gradient, ASA, ECA, R-Raman, ABS, FL, XAS/XES, NRVS
   Peter Pinski           : DLPNO-MP2, DLPNO-MP2 Gradient
   Christoph Reimann      : Effective Core Potentials
   Marius Retegan         : Local ZFS, SOC
   Christoph Riplinger    : Optimizer, TS searches, QM/MM, DLPNO-CCSD(T), (RO)-DLPNO pert. Triples
   Tobias Risthaus        : Range-separated hybrids, TD-DFT gradient, RPA, STAB
   Michael Roemelt        : Original ROCIS implementation
   Masaaki Saitow         : Open-shell DLPNO-CCSD energy and density
   Barbara Sandhoefer     : DKH picture change effects
   Avijit Sen             : IP-ROCIS
   Kantharuban Sivalingam : CASSCF convergence, NEVPT2, FIC-MRCI
   Bernardo de Souza      : ESD, SOC TD-DFT
   Georgi Stoychev        : AutoAux, RI-MP2 NMR, DLPNO-MP2 response
   Willem Van den Heuvel  : Paramagnetic NMR
   Boris Wezisla          : Elementary symmetry handling
   Frank Wennmohs         : Technical directorship


 We gratefully acknowledge several colleagues who have allowed us to
 interface, adapt or use parts of their codes:
   Stefan Grimme, W. Hujo, H. Kruse, P. Pracht,  : VdW corrections, initial TS optimization,
                  C. Bannwarth, S. Ehlert          DFT functionals, gCP, sTDA/sTD-DF
   Ed Valeev, F. Pavosevic, A. Kumar             : LibInt (2-el integral package), F12 methods
   Garnet Chan, S. Sharma, J. Yang, R. Olivares  : DMRG
   Ulf Ekstrom                                   : XCFun DFT Library
   Mihaly Kallay                                 : mrcc  (arbitrary order and MRCC methods)
   Jiri Pittner, Ondrej Demel                    : Mk-CCSD
   Frank Weinhold                                : gennbo (NPA and NBO analysis)
   Christopher J. Cramer and Donald G. Truhlar   : smd solvation model
   Lars Goerigk                                  : TD-DFT with DH, B97 family of functionals
   V. Asgeirsson, H. Jonsson                     : NEB implementation
   FAccTs GmbH                                   : IRC, NEB, NEB-TS, DLPNO-Multilevel, CI-OPT
                                                   MM, QMMM, 2- and 3-layer-ONIOM, Crystal-QMMM,
                                                   LR-CPCM, SF, NACMEs, symmetry and pop. for TD-DFT,
                                                   nearIR, NL-DFT gradient (VV10), updates on ESD,
                                                   ML-optimized integration grids
   S Lehtola, MJT Oliveira, MAL Marques          : LibXC Library
   Liviu Ungur et al                             : ANISO software


 Your calculation uses the libint2 library for the computation of 2-el integrals
 For citations please refer to: http://libint.valeyev.net

 Your ORCA version has been built with support for libXC version: 5.1.0
 For citations please refer to: https://tddft.org/programs/libxc/

 This ORCA versions uses:
   CBLAS   interface :  Fast vector & matrix operations
   LAPACKE interface :  Fast linear algebra routines
   SCALAPACK package :  Parallel linear algebra routines
   Shared memory     :  Shared parallel matrices
   BLAS/LAPACK       :  OpenBLAS 0.3.15  USE64BITINT DYNAMIC_ARCH NO_AFFINITY Prescott SINGLE_THREADED
        Core in use  :  Prescott
   Copyright (c) 2011-2014, The OpenBLAS Project




***************************************
The coordinates will be read from file: inp.xyz
***************************************


Your calculation utilizes the geometrical counterpoise correction gCP
Please cite in your paper:
H.Kruse, S. Grimme J.Chem.Phys., 136, (2012), 154101 
   

Your calculation utilizes the atom-pairwise dispersion correction
based on tight binding partial charges (D4)
Cite in your paper:
E.Caldeweyher, C.Bannwarth, S.Grimme, J.Chem.Phys., (2017), 147, 034112.
E.Caldeweyher, S.Ehlert, A.Hansen, H.Neugebauer, S.Grimme, J.Chem.Phys., (2018), in progress.
   

================================================================================

----- Orbital basis set information -----
Your calculation utilizes the basis: def2-mTZVPP
   Stefan Grimme, Andreas Hansen, Sebastian Ehlert, and Jan-Michael Mewes 
   J. Chem. Phys. 154, 000000 (2021). DOI: 10.1063/5.0040021

----- AuxJ basis set information -----
Your calculation utilizes the basis: def2-mTZVPP/J
   Stefan Grimme, Andreas Hansen, Sebastian Ehlert, and Jan-Michael Mewes 
   J. Chem. Phys. 154, 000000 (2021). DOI: 10.1063/5.0040021

================================================================================
                                        WARNINGS
                       Please study these warnings very carefully!
================================================================================

WARNING: Old DensityContainer found on disk!
         Will remove this file - 
         If you want to keep old densities, please start your calculation with a different basename. 

Using LibXC functional ID 497 : Re-regularized SCAN exchange by Furness et al
[ 1]  J. W. Furness, A. D. Kaplan, J. Ning, J. P. Perdew, and J. Sun, J. Phys. Chem. Lett. 11, 8208 (2020)
[ 2]  J. W. Furness, A. D. Kaplan, J. Ning, J. P. Perdew, and J. Sun, J. Phys. Chem. Lett. 11, 9248 (2020)
Using LibXC functional ID 498 : Re-regularized SCAN correlation by Furness et al
[ 1]  J. W. Furness, A. D. Kaplan, J. Ning, J. P. Perdew, and J. Sun, J. Phys. Chem. Lett. 11, 8208 (2020)
[ 2]  J. W. Furness, A. D. Kaplan, J. Ning, J. P. Perdew, and J. Sun, J. Phys. Chem. Lett. 11, 9248 (2020)
Using LibXC functional ID 497 : Re-regularized SCAN exchange by Furness et al
[ 1]  J. W. Furness, A. D. Kaplan, J. Ning, J. P. Perdew, and J. Sun, J. Phys. Chem. Lett. 11, 8208 (2020)
[ 2]  J. W. Furness, A. D. Kaplan, J. Ning, J. P. Perdew, and J. Sun, J. Phys. Chem. Lett. 11, 9248 (2020)
Using LibXC functional ID 498 : Re-regularized SCAN correlation by Furness et al
[ 1]  J. W. Furness, A. D. Kaplan, J. Ning, J. P. Perdew, and J. Sun, J. Phys. Chem. Lett. 11, 8208 (2020)
[ 2]  J. W. Furness, A. D. Kaplan, J. Ning, J. P. Perdew, and J. Sun, J. Phys. Chem. Lett. 11, 9248 (2020)

WARNING: Geometry Optimization
  ===> : Switching off AutoStart
         For restart on a previous wavefunction, please use MOREAD

INFO   : the flag for use of the SHARK integral package has been found!

================================================================================
                                       INPUT FILE
================================================================================
NAME = inp
|  1> !r2scan-3c Opt D4 Freq
|  2> %pal
|  3>  nprocs 8
|  4> end
|  5> * xyzfile 0 1 inp.xyz
|  6> 
|  7> 
|  8>                          ****END OF INPUT****
================================================================================

                       *****************************
                       * Geometry Optimization Run *
                       *****************************

Geometry optimization settings:
Update method            Update   .... BFGS
Choice of coordinates    CoordSys .... Z-matrix Internals
Initial Hessian          InHess   .... Almoef's Model

Convergence Tolerances:
Energy Change            TolE     ....  5.0000e-06 Eh
Max. Gradient            TolMAXG  ....  3.0000e-04 Eh/bohr
RMS Gradient             TolRMSG  ....  1.0000e-04 Eh/bohr
Max. Displacement        TolMAXD  ....  4.0000e-03 bohr
RMS Displacement         TolRMSD  ....  2.0000e-03 bohr
Strict Convergence                ....  False
------------------------------------------------------------------------------
                        ORCA OPTIMIZATION COORDINATE SETUP
------------------------------------------------------------------------------

The optimization will be done in new redundant internal coordinates
Making redundant internal coordinates   ...  (new redundants) done
Evaluating the initial hessian          ...  (Almloef) done
Evaluating the coordinates              ...  done
Calculating the B-matrix                .... done
Calculating the G-matrix                .... done
Diagonalizing the G-matrix              .... done
The first mode is                       ....   36
The number of degrees of freedom        ....   36

    -----------------------------------------------------------------
                    Redundant Internal Coordinates


    -----------------------------------------------------------------
         Definition                    Initial Value    Approx d2E/dq
    -----------------------------------------------------------------
      1. B(C   1,C   0)                  1.5019         0.414179   
      2. B(H   2,C   0)                  1.0940         0.354856   
      3. B(H   3,C   0)                  1.0941         0.354745   
      4. B(H   4,C   0)                  1.0893         0.361007   
      5. B(O   5,C   1)                  1.3431         0.664914   
      6. B(C   6,O   5)                  1.4484         0.451607   
      7. B(H   7,C   6)                  1.0930         0.356217   
      8. B(H   8,C   6)                  1.0897         0.360457   
      9. B(H   9,C   6)                  1.0930         0.356192   
     10. B(O  10,C   1)                  1.2149         1.064587   
     11. B(H  12,O  11)                  0.9609         0.518317   
     12. B(H  13,H   9)                  2.4474         0.000471   
     13. B(H  13,H   7)                  2.4536         0.000460   
     14. B(H  13,O  10)                  1.9777         0.012366   
     15. B(H  13,O  11)                  0.9696         0.501987   
     16. A(H   3,C   0,H   4)          110.1175         0.290271   
     17. A(C   1,C   0,H   3)          109.8314         0.329064   
     18. A(H   2,C   0,H   4)          110.1535         0.290285   
     19. A(C   1,C   0,H   4)          109.5721         0.330016   
     20. A(C   1,C   0,H   2)          109.8563         0.329080   
     21. A(H   2,C   0,H   3)          107.2814         0.289489   
     22. A(C   0,C   1,O   5)          111.1901         0.406346   
     23. A(O   5,C   1,O  10)          124.0587         0.478710   
     24. A(C   0,C   1,O  10)          124.7512         0.442021   
     25. A(C   1,O   5,C   6)          115.8836         0.409959   
     26. A(H   8,C   6,H   9)          110.7270         0.290387   
     27. A(O   5,C   6,H   9)          110.5240         0.332020   
     28. A(H   7,C   6,H   8)          110.7300         0.290390   
     29. A(H   7,C   6,H   9)          109.0685         0.289848   
     30. A(O   5,C   6,H   8)          105.2399         0.332676   
     31. A(O   5,C   6,H   7)          110.5182         0.332024   
     32. A(C   6,H   7,H  13)           98.3588         0.124638   
     33. A(C   6,H   9,H  13)           98.7093         0.124822   
     34. A(C   1,O  10,H  13)          135.4955         0.225306   
     35. A(H  12,O  11,H  13)          104.4168         0.319823   
     36. A(H   9,H  13,O  10)           73.4528         0.105547   
     37. A(H   7,H  13,O  10)           73.3116         0.105462   
     38. A(O  10,H  13,O  11)          170.7385         0.188100   
     39. A(H   7,H  13,H   9)           42.6011         0.095356   
     40. A(H   9,H  13,O  11)           98.0447         0.127263   
     41. A(H   7,H  13,O  11)           98.0049         0.127066   
     42. D(O  10,C   1,C   0,H   2)   -121.4414         0.012696   
     43. D(O   5,C   1,C   0,H   2)     58.5710         0.012696   
     44. D(O   5,C   1,C   0,H   3)    -59.2036         0.012696   
     45. D(O  10,C   1,C   0,H   4)     -0.2986         0.012696   
     46. D(O   5,C   1,C   0,H   4)    179.7139         0.012696   
     47. D(O  10,C   1,C   0,H   3)    120.7839         0.012696   
     48. D(C   6,O   5,C   1,C   0)    179.9426         0.032799   
     49. D(C   6,O   5,C   1,O  10)     -0.0451         0.032799   
     50. D(H   9,C   6,O   5,C   1)     60.4311         0.016062   
     51. D(H   8,C   6,O   5,C   1)   -179.9869         0.016062   
     52. D(H   7,C   6,O   5,C   1)    -60.4044         0.016062   
     53. D(H  13,H   7,C   6,H   8)   -154.4882         0.118308   
     54. D(H  13,H   7,C   6,O   5)     89.2972         0.118308   
     55. D(H  13,H   7,C   6,H   9)    -32.4011         0.118308   
     56. D(H  13,H   9,C   6,O   5)    -89.1678         0.118287   
     57. D(H  13,H   9,C   6,H   8)    154.6158         0.118287   
     58. D(H  13,H   9,C   6,H   7)     32.5270         0.118287   
     59. D(H  13,O  10,C   1,O   5)     -0.2842         0.094693   
     60. D(H  13,O  10,C   1,C   0)    179.7298         0.094693   
     61. D(H   9,H  13,O  11,H  12)   -158.5732         0.350192   
     62. D(H   7,H  13,O  11,H  12)    158.3835         0.350192   
     63. D(H   9,H  13,O  10,C   1)    -21.9429         0.001588   
     64. D(O  11,H  13,O  10,C   1)      1.8649         0.001588   
     65. D(O  10,H  13,H   9,C   6)     63.6000         0.001502   
     66. D(H   7,H  13,H   9,C   6)    -19.5379         0.001502   
     67. D(H   7,H  13,O  10,C   1)     22.6120         0.001588   
     68. D(O  11,H  13,H   9,C   6)   -112.6380         0.001502   
     69. D(O  10,H  13,H   7,C   6)    -63.9779         0.001502   
     70. D(H   9,H  13,H   7,C   6)     19.5196         0.001502   
     71. D(O  10,H  13,O  11,H  12)    178.4226         0.350192   
     72. D(O  11,H  13,H   7,C   6)    112.7216         0.001502   
    -----------------------------------------------------------------

Number of atoms                         .... 14
Number of degrees of freedom            .... 72

         *************************************************************
         *                GEOMETRY OPTIMIZATION CYCLE   1            *
         *************************************************************
---------------------------------
CARTESIAN COORDINATES (ANGSTROEM)
---------------------------------
  C     -3.911419   -0.281793   -0.076543
  C     -2.548865    0.308684    0.148234
  H     -4.033232   -1.179383    0.536904
  H     -4.016176   -0.586099   -1.122216
  H     -4.674127    0.453114    0.178007
  O     -1.581862   -0.574221   -0.150419
  C     -0.222443   -0.107895    0.029243
  H     -0.027380    0.758651   -0.607617
  H      0.409004   -0.948092   -0.258604
  H     -0.046818    0.168560    1.071986
  O     -2.340356    1.436979    0.547661
  O      0.136033    2.918009    1.105079
  H     -0.062735    3.805176    1.416009
  H     -0.732714    2.514910    0.953877

----------------------------
CARTESIAN COORDINATES (A.U.)
----------------------------
  NO LB      ZA    FRAG     MASS         X           Y           Z
   0 C     6.0000    0    12.011   -7.391512   -0.532512   -0.144645
   1 C     6.0000    0    12.011   -4.816657    0.583329    0.280121
   2 H     1.0000    0     1.008   -7.621703   -2.228711    1.014601
   3 H     1.0000    0     1.008   -7.589473   -1.107567   -2.120680
   4 H     1.0000    0     1.008   -8.832820    0.856261    0.336385
   5 O     8.0000    0    15.999   -2.989285   -1.085120   -0.284251
   6 C     6.0000    0    12.011   -0.420357   -0.203892    0.055261
   7 H     1.0000    0     1.008   -0.051740    1.433642   -1.148230
   8 H     1.0000    0     1.008    0.772905   -1.791633   -0.488690
   9 H     1.0000    0     1.008   -0.088474    0.318533    2.025759
  10 O     8.0000    0    15.999   -4.422631    2.715496    1.034928
  11 O     8.0000    0    15.999    0.257066    5.514238    2.088297
  12 H     1.0000    0     1.008   -0.118552    7.190740    2.675869
  13 H     1.0000    0     1.008   -1.384629    4.752491    1.802567

--------------------------------
INTERNAL COORDINATES (ANGSTROEM)
--------------------------------
 C      0   0   0     0.000000000000     0.00000000     0.00000000
 C      1   0   0     1.501913187412     0.00000000     0.00000000
 H      1   2   0     1.093993589382   109.85633018     0.00000000
 H      1   2   3     1.094078487071   109.83139463   242.22538111
 H      1   2   3     1.089315241185   109.57211408   121.14288475
 O      2   1   3     1.343059813579   111.19008426    58.57103603
 C      6   2   1     1.448363508442   115.88364847   179.94256636
 H      7   6   2     1.092951115394   110.51820669   299.59560806
 H      7   6   2     1.089729898564   105.23990554   180.01313636
 H      7   6   2     1.092970429103   110.52403963    60.43109447
 O      2   1   3     1.214934520091   124.75120275   238.55856514
 O     10   7   6     2.755721035465   105.93118940   251.29735636
 H     12  10   7     0.960859716357   155.69448906   130.84809631
 H     12  10   7     0.969573695354    61.56713797    71.57763208

---------------------------
INTERNAL COORDINATES (A.U.)
---------------------------
 C      0   0   0     0.000000000000     0.00000000     0.00000000
 C      1   0   0     2.838204601133     0.00000000     0.00000000
 H      1   2   0     2.067348276198   109.85633018     0.00000000
 H      1   2   3     2.067508709580   109.83139463   242.22538111
 H      1   2   3     2.058507479347   109.57211408   121.14288475
 O      2   1   3     2.538015229139   111.19008426    58.57103603
 C      6   2   1     2.737010373321   115.88364847   179.94256636
 H      7   6   2     2.065378285858   110.51820669   299.59560806
 H      7   6   2     2.059291068231   105.23990554   180.01313636
 H      7   6   2     2.065414783478   110.52403963    60.43109447
 O      2   1   3     2.295893513620   124.75120275   238.55856514
 O     10   7   6     5.207558058514   105.93118940   251.29735636
 H     12  10   7     1.815761717031   155.69448906   130.84809631
 H     12  10   7     1.832228750873    61.56713797    71.57763208

---------------------
BASIS SET INFORMATION
---------------------
There are 3 groups of distinct atoms

 Group   1 Type C   : 11s6p1d contracted to 5s3p1d pattern {62111/411/1}
 Group   2 Type H   : 4s1p contracted to 2s1p pattern {31/1}
 Group   3 Type O   : 11s6p2d contracted to 5s3p2d pattern {62111/411/11}

Atom   0C    basis set group =>   1
Atom   1C    basis set group =>   1
Atom   2H    basis set group =>   2
Atom   3H    basis set group =>   2
Atom   4H    basis set group =>   2
Atom   5O    basis set group =>   3
Atom   6C    basis set group =>   1
Atom   7H    basis set group =>   2
Atom   8H    basis set group =>   2
Atom   9H    basis set group =>   2
Atom  10O    basis set group =>   3
Atom  11O    basis set group =>   3
Atom  12H    basis set group =>   2
Atom  13H    basis set group =>   2
---------------------------------
AUXILIARY/J BASIS SET INFORMATION
---------------------------------
There are 3 groups of distinct atoms

 Group   1 Type C   : 8s3p3d contracted to 6s3p3d pattern {311111/111/111}
 Group   2 Type H   : 5s2p1d contracted to 3s1p1d pattern {311/2/1}
 Group   3 Type O   : 8s3p3d contracted to 6s3p3d pattern {311111/111/111}

Atom   0C    basis set group =>   1
Atom   1C    basis set group =>   1
Atom   2H    basis set group =>   2
Atom   3H    basis set group =>   2
Atom   4H    basis set group =>   2
Atom   5O    basis set group =>   3
Atom   6C    basis set group =>   1
Atom   7H    basis set group =>   2
Atom   8H    basis set group =>   2
Atom   9H    basis set group =>   2
Atom  10O    basis set group =>   3
Atom  11O    basis set group =>   3
Atom  12H    basis set group =>   2
Atom  13H    basis set group =>   2
[urraka:24785] mca_base_component_repository_open: unable to open mca_btl_openib: libibverbs.so.1: cannot open shared object file: No such file or directory (ignored)
[urraka:24786] mca_base_component_repository_open: unable to open mca_btl_openib: libibverbs.so.1: cannot open shared object file: No such file or directory (ignored)
[urraka:24787] mca_base_component_repository_open: unable to open mca_btl_openib: libibverbs.so.1: cannot open shared object file: No such file or directory (ignored)
[urraka:24790] mca_base_component_repository_open: unable to open mca_btl_openib: libibverbs.so.1: cannot open shared object file: No such file or directory (ignored)
[urraka:24789] mca_base_component_repository_open: unable to open mca_btl_openib: libibverbs.so.1: cannot open shared object file: No such file or directory (ignored)
[urraka:24794] mca_base_component_repository_open: unable to open mca_btl_openib: libibverbs.so.1: cannot open shared object file: No such file or directory (ignored)
[urraka:24796] mca_base_component_repository_open: unable to open mca_btl_openib: libibverbs.so.1: cannot open shared object file: No such file or directory (ignored)
[urraka:24792] mca_base_component_repository_open: unable to open mca_btl_openib: libibverbs.so.1: cannot open shared object file: No such file or directory (ignored)


           ************************************************************
           *        Program running with 8 parallel MPI-processes     *
           *              working on a common directory               *
           ************************************************************
------------------------------------------------------------------------------
                           ORCA GTO INTEGRAL CALCULATION
                           -- RI-GTO INTEGRALS CHOSEN --
------------------------------------------------------------------------------
------------------------------------------------------------------------------
                   ___                                                        
                  /   \      - P O W E R E D   B Y -                         
                 /     \                                                     
                 |  |  |   _    _      __       _____    __    __             
                 |  |  |  | |  | |    /  \     |  _  \  |  |  /  |          
                  \  \/   | |  | |   /    \    | | | |  |  | /  /          
                 / \  \   | |__| |  /  /\  \   | |_| |  |  |/  /          
                |  |  |   |  __  | /  /__\  \  |    /   |      \           
                |  |  |   | |  | | |   __   |  |    \   |  |\   \          
                \     /   | |  | | |  |  |  |  | |\  \  |  | \   \       
                 \___/    |_|  |_| |__|  |__|  |_| \__\ |__|  \__/        
                                                                              
                      - O R C A' S   B I G   F R I E N D -                    
                                      &                                       
                       - I N T E G R A L  F E E D E R -                       
                                                                              
 v1 FN, 2020, v2 2021                                                         
------------------------------------------------------------------------------


Reading SHARK input file inp.SHARKINP.tmp ... ok
----------------------
SHARK INTEGRAL PACKAGE
----------------------

Number of atoms                             ...     14
Number of basis functions                   ...    169
Number of shells                            ...     81
Maximum angular momentum                    ...      2
Integral batch strategy                     ... SHARK/LIBINT Hybrid
RI-J (if used) integral strategy            ... SPLIT-RIJ (Revised 2003 algorithm where possible)
Printlevel                                  ...      1
Contraction scheme used                     ... SEGMENTED contraction
Coulomb Range Separation                    ... NOT USED
Exchange Range Separation                   ... NOT USED
Finite Nucleus Model                        ... NOT USED
Auxiliary Coulomb fitting basis             ... AVAILABLE
   # of basis functions in Aux-J            ...    268
   # of shells in Aux-J                     ...    112
   Maximum angular momentum in Aux-J        ...      2
Auxiliary J/K fitting basis                 ... NOT available
Auxiliary Correlation fitting basis         ... NOT available
Auxiliary 'external' fitting basis          ... NOT available
Integral threshold                          ...     2.500000e-11
Primitive cut-off                           ...     2.500000e-12
Primitive pair pre-selection threshold      ...     2.500000e-12

Calculating pre-screening integrals         ... done (  0.1 sec) Dimension = 81
Organizing shell pair data                  ... done (  0.0 sec)
Shell pair information
Total number of shell pairs                 ...      3321
Shell pairs after pre-screening             ...      2992
Total number of primitive shell pairs       ...     11632
Primitive shell pairs kept                  ...      7646
          la=0 lb=0:    956 shell pairs
          la=1 lb=0:   1069 shell pairs
          la=1 lb=1:    318 shell pairs
          la=2 lb=0:    383 shell pairs
          la=2 lb=1:    223 shell pairs
          la=2 lb=2:     43 shell pairs

Calculating one electron integrals          ... done (  0.0 sec)
Calculating RI/J V-Matrix + Cholesky decomp.... done (  0.0 sec)
Calculating Nuclear repulsion               ... done (  0.0 sec) ENN=    247.540639306911 Eh

SHARK setup successfully completed in   0.3 seconds

Maximum memory used throughout the entire GTOINT-calculation: 10.5 MB
[urraka:24816] mca_base_component_repository_open: unable to open mca_btl_openib: libibverbs.so.1: cannot open shared object file: No such file or directory (ignored)
[urraka:24818] mca_base_component_repository_open: unable to open mca_btl_openib: libibverbs.so.1: cannot open shared object file: No such file or directory (ignored)
[urraka:24815] mca_base_component_repository_open: unable to open mca_btl_openib: libibverbs.so.1: cannot open shared object file: No such file or directory (ignored)
[urraka:24819] mca_base_component_repository_open: unable to open mca_btl_openib: libibverbs.so.1: cannot open shared object file: No such file or directory (ignored)
[urraka:24817] mca_base_component_repository_open: unable to open mca_btl_openib: libibverbs.so.1: cannot open shared object file: No such file or directory (ignored)
[urraka:24826] mca_base_component_repository_open: unable to open mca_btl_openib: libibverbs.so.1: cannot open shared object file: No such file or directory (ignored)
[urraka:24823] mca_base_component_repository_open: unable to open mca_btl_openib: libibverbs.so.1: cannot open shared object file: No such file or directory (ignored)
[urraka:24821] mca_base_component_repository_open: unable to open mca_btl_openib: libibverbs.so.1: cannot open shared object file: No such file or directory (ignored)


           ************************************************************
           *        Program running with 8 parallel MPI-processes     *
           *              working on a common directory               *
           ************************************************************
-------------------------------------------------------------------------------
                                 ORCA SCF
-------------------------------------------------------------------------------

------------
SCF SETTINGS
------------
Hamiltonian:
 Density Functional     Method          .... DFT(GTOs)
  Functional kind                       .... Exchange
  Functional name                       .... Re-regularized SCAN exchange by Furness et al
  Functional family                     .... MGGA
  Functional refs                              
    [ 0] J. W. Furness, A. D. Kaplan, J. Ning, J. P. Perdew, and J. Sun, J. Phys. Chem. Lett. 11, 8208 (2020)
    [ 1] J. W. Furness, A. D. Kaplan, J. Ning, J. P. Perdew, and J. Sun, J. Phys. Chem. Lett. 11, 9248 (2020)
  Functional external parameters         .... 8
 Parameter  0 :         c1 parameter
 Parameter  1 :         c2 parameter
 Parameter  2 :          d parameter
 Parameter  3 :         k1 parameter
 Parameter  4 :       taur parameter
 Parameter  5 :     alphar parameter
 Parameter  6 :        eta parameter
 Parameter  7 :        dp2 parameter
  Functional kind                       .... Correlation
  Functional name                       .... Re-regularized SCAN correlation by Furness et al
  Functional family                     .... MGGA
  Functional refs                              
    [ 0] J. W. Furness, A. D. Kaplan, J. Ning, J. P. Perdew, and J. Sun, J. Phys. Chem. Lett. 11, 8208 (2020)
    [ 1] J. W. Furness, A. D. Kaplan, J. Ning, J. P. Perdew, and J. Sun, J. Phys. Chem. Lett. 11, 9248 (2020)
  Functional external parameters         .... 0
 Gradients option       PostSCFGGA      .... off
   Density functional embedding theory  .... OFF
 RI-approximation to the Coulomb term is turned on
   Number of AuxJ basis functions       .... 268


General Settings:
 Integral files         IntName         .... inp
 Hartree-Fock type      HFTyp           .... RHF
 Total Charge           Charge          ....    0
 Multiplicity           Mult            ....    1
 Number of Electrons    NEL             ....   50
 Basis Dimension        Dim             ....  169
 Nuclear Repulsion      ENuc            ....    247.5406393069 Eh

Convergence Acceleration:
 DIIS                   CNVDIIS         .... on
   Start iteration      DIISMaxIt       ....    12
   Startup error        DIISStart       ....  0.200000
   # of expansion vecs  DIISMaxEq       ....     5
   Bias factor          DIISBfac        ....   1.050
   Max. coefficient     DIISMaxC        ....  10.000
 Trust-Rad. Augm. Hess. CNVTRAH         .... auto
   Auto Start mean grad. ratio tolernc. ....  1.125000
   Auto Start start iteration           ....    20
   Auto Start num. interpolation iter.  ....    10
   Max. Number of Micro iterations      ....    16
   Max. Number of Macro iterations      .... Maxiter - #DIIS iter
   Number of Davidson start vectors     ....     2
   Converg. threshold I  (grad. norm)   ....   1.000e-05
   Converg. threshold II (energy diff.) ....   1.000e-08
   Grad. Scal. Fac. for Micro threshold ....   0.100
   Minimum threshold for Micro iter.    ....   0.010
   NR start threshold (gradient norm)   ....   0.001
   Initial trust radius                 ....   0.400
   Minimum AH scaling param. (alpha)    ....   1.000
   Maximum AH scaling param. (alpha)    .... 1000.000
   Orbital update algorithm             .... Taylor
   White noise on init. David. guess    .... on
   Maximum white noise                  ....   0.010
   Quad. conv. algorithm                .... NR
   COSX micro iterations for RIJONX calc.... off
 SOSCF                  CNVSOSCF        .... on
   Start iteration      SOSCFMaxIt      ....   150
   Startup grad/error   SOSCFStart      ....  0.003300
 Level Shifting         CNVShift        .... on
   Level shift para.    LevelShift      ....    0.2500
   Turn off err/grad.   ShiftErr        ....    0.0010
 Zerner damping         CNVZerner       .... off
 Static damping         CNVDamp         .... on
   Fraction old density DampFac         ....    0.7000
   Max. Damping (<1)    DampMax         ....    0.9800
   Min. Damping (>=0)   DampMin         ....    0.0000
   Turn off err/grad.   DampErr         ....    0.1000
 Fernandez-Rico         CNVRico         .... off

SCF Procedure:
 Maximum # iterations   MaxIter         ....   125
 SCF integral mode      SCFMode         .... Direct
   Integral package                     .... SHARK and LIBINT hybrid scheme
 Reset frequency        DirectResetFreq ....    20
 Integral Threshold     Thresh          ....  2.500e-11 Eh
 Primitive CutOff       TCut            ....  2.500e-12 Eh

Convergence Tolerance:
 Convergence Check Mode ConvCheckMode   .... Total+1el-Energy
 Convergence forced     ConvForced      .... 0
 Energy Change          TolE            ....  1.000e-08 Eh
 1-El. energy change                    ....  1.000e-05 Eh
 Orbital Gradient       TolG            ....  1.000e-05
 Orbital Rotation angle TolX            ....  1.000e-05
 DIIS Error             TolErr          ....  5.000e-07


Diagonalization of the overlap matrix:
Smallest eigenvalue                        ... 3.580e-04
Time for diagonalization                   ...    0.012 sec
Threshold for overlap eigenvalues          ... 1.000e-08
Number of eigenvalues below threshold      ... 0
Time for construction of square roots      ...    0.011 sec
Total time needed                          ...    0.023 sec

Time for model grid setup =    0.119 sec

------------------------------
INITIAL GUESS: MODEL POTENTIAL
------------------------------
Loading Hartree-Fock densities                     ... done
Calculating cut-offs                               ... done
Initializing the effective Hamiltonian             ... done
Setting up the integral package (SHARK)            ... done
Starting the Coulomb interaction                   ... done (   0.0 sec)
Reading the grid                                   ... done
Mapping shells                                     ... done
Starting the XC term evaluation                    ... done (   0.1 sec)
  promolecular density results
     # of electrons  =     49.996265266
     EX              =    -42.132122790
     EC              =     -1.639207194
     EX+EC           =    -43.771329984
Transforming the Hamiltonian                       ... done (   0.0 sec)
Diagonalizing the Hamiltonian                      ... done (   0.0 sec)
Back transforming the eigenvectors                 ... done (   0.0 sec)
Now organizing SCF variables                       ... done
                      ------------------
                      INITIAL GUESS DONE (   0.2 sec)
                      ------------------
-------------------
DFT GRID GENERATION
-------------------

General Integration Accuracy     IntAcc      ... 4.388
Radial Grid Type                 RadialGrid  ... OptM3 with GC (2021)
Angular Grid (max. ang.)         AngularGrid ... 4 (Lebedev-302)
Angular grid pruning method      GridPruning ... 4 (adaptive)
Weight generation scheme         WeightScheme... Becke
Basis function cutoff            BFCut       ... 1.0000e-11
Integration weight cutoff        WCut        ... 1.0000e-14
Angular grids for H and He will be reduced by one unit
Partially contracted basis set               ... off
Rotationally invariant grid construction     ... off

Total number of grid points                  ...    63304
Total number of batches                      ...      998
Average number of points per batch           ...       63
Average number of grid points per atom       ...     4522
Time for grid setup =    0.719 sec

--------------
SCF ITERATIONS
--------------
ITER       Energy         Delta-E        Max-DP      RMS-DP      [F,P]     Damp
               ***  Starting incremental Fock matrix formation  ***
  0   -344.5284080417   0.000000000000 0.05503295  0.00176148  0.3200524 0.7000
  1   -344.6515951813  -0.123187139577 0.03235253  0.00109243  0.1217412 0.7000
                               ***Turning on DIIS***
  2   -344.6906128262  -0.039017644916 0.03350976  0.00148443  0.0378941 0.0000
  3   -344.7614854526  -0.070872626340 0.02428730  0.00076067  0.0734182 0.0000
  4   -344.7743988840  -0.012913431387 0.00565339  0.00025520  0.0167172 0.0000
  5   -344.7756251738  -0.001226289853 0.00193260  0.00007421  0.0039027 0.0000
                      *** Initiating the SOSCF procedure ***
                           *** Shutting down DIIS ***
                      *** Re-Reading the Fockian *** 
                      *** Removing any level shift *** 
ITER      Energy       Delta-E        Grad      Rot      Max-DP    RMS-DP
  6   -344.77565326  -0.0000280864  0.000393  0.000393  0.000913  0.000030
               *** Restarting incremental Fock matrix formation ***
  7   -344.77566673  -0.0000134656  0.000095  0.000338  0.000312  0.000014
  8   -344.77566648   0.0000002419  0.000227  0.000300  0.000231  0.000006
  9   -344.77566716  -0.0000006787  0.000075  0.000144  0.000113  0.000004
 10   -344.77566706   0.0000001008  0.000104  0.000123  0.000088  0.000003
 11   -344.77566722  -0.0000001578  0.000019  0.000053  0.000038  0.000001
 12   -344.77566721   0.0000000097  0.000028  0.000026  0.000022  0.000001
                  ***Gradient check signals convergence***
              ***Rediagonalizing the Fockian in SOSCF/NRSCF***

               *****************************************************
               *                     SUCCESS                       *
               *           SCF CONVERGED AFTER  13 CYCLES          *
               *****************************************************


----------------
TOTAL SCF ENERGY
----------------

Total Energy       :         -344.77566723 Eh           -9381.82287 eV

Components:
Nuclear Repulsion  :          247.54063931 Eh            6735.92324 eV
Electronic Energy  :         -592.31630653 Eh          -16117.74611 eV
One Electron Energy:         -961.38182911 Eh          -26160.52955 eV
Two Electron Energy:          369.06552258 Eh           10042.78343 eV

Virial components:
Potential Energy   :         -688.11424585 Eh          -18724.54057 eV
Kinetic Energy     :          343.33857863 Eh            9342.71770 eV
Virial Ratio       :            2.00418563


DFT components:
N(Alpha)           :       25.000006552645 electrons
N(Beta)            :       25.000006552645 electrons
N(Total)           :       50.000013105291 electrons
E(X)               :      -43.269634068519 Eh       
E(C)               :       -1.610394306949 Eh       
E(XC)              :      -44.880028375467 Eh       
DFET-embed. en.    :        0.000000000000 Eh       

---------------
SCF CONVERGENCE
---------------

  Last Energy change         ...   -1.6151e-08  Tolerance :   1.0000e-08
  Last MAX-Density change    ...    5.4420e-06  Tolerance :   1.0000e-07
  Last RMS-Density change    ...    2.4338e-07  Tolerance :   5.0000e-09
  Last Orbital Gradient      ...    2.1635e-06  Tolerance :   1.0000e-05
  Last Orbital Rotation      ...    2.5269e-06  Tolerance :   1.0000e-05

             **** THE GBW FILE WAS UPDATED (inp.gbw) ****
             **** DENSITY inp.scfp WAS UPDATED ****
             **** ENERGY FILE WAS UPDATED (inp.en.tmp) ****
             **** THE GBW FILE WAS UPDATED (inp.gbw) ****
             **** DENSITY inp.scfp WAS UPDATED ****
----------------
ORBITAL ENERGIES
----------------

  NO   OCC          E(Eh)            E(eV) 
   0   2.0000     -19.009789      -517.2827 
   1   2.0000     -18.951380      -515.6933 
   2   2.0000     -18.922936      -514.9193 
   3   2.0000     -10.172243      -276.8008 
   4   2.0000     -10.088340      -274.5177 
   5   2.0000     -10.051088      -273.5040 
   6   2.0000      -1.078831       -29.3565 
   7   2.0000      -0.992541       -27.0084 
   8   2.0000      -0.946376       -25.7522 
   9   2.0000      -0.744283       -20.2530 
  10   2.0000      -0.675323       -18.3765 
  11   2.0000      -0.542297       -14.7566 
  12   2.0000      -0.487480       -13.2650 
  13   2.0000      -0.464093       -12.6286 
  14   2.0000      -0.462662       -12.5897 
  15   2.0000      -0.450414       -12.2564 
  16   2.0000      -0.406420       -11.0593 
  17   2.0000      -0.395556       -10.7636 
  18   2.0000      -0.378550       -10.3009 
  19   2.0000      -0.350255        -9.5309 
  20   2.0000      -0.340699        -9.2709 
  21   2.0000      -0.322850        -8.7852 
  22   2.0000      -0.287540        -7.8244 
  23   2.0000      -0.257814        -7.0155 
  24   2.0000      -0.249020        -6.7762 
  25   0.0000      -0.030898        -0.8408 
  26   0.0000       0.058888         1.6024 
  27   0.0000       0.079929         2.1750 
  28   0.0000       0.110892         3.0175 
  29   0.0000       0.124383         3.3846 
  30   0.0000       0.141021         3.8374 
  31   0.0000       0.160150         4.3579 
  32   0.0000       0.163726         4.4552 
  33   0.0000       0.165414         4.5011 
  34   0.0000       0.177015         4.8168 
  35   0.0000       0.185197         5.0395 
  36   0.0000       0.194990         5.3059 
  37   0.0000       0.205359         5.5881 
  38   0.0000       0.210662         5.7324 
  39   0.0000       0.230115         6.2618 
  40   0.0000       0.267560         7.2807 
  41   0.0000       0.269762         7.3406 
  42   0.0000       0.273450         7.4410 
  43   0.0000       0.296037         8.0556 
  44   0.0000       0.308738         8.4012 
  45   0.0000       0.365623         9.9491 
  46   0.0000       0.380119        10.3436 
  47   0.0000       0.409597        11.1457 
  48   0.0000       0.415001        11.2927 
  49   0.0000       0.425152        11.5690 
  50   0.0000       0.437102        11.8942 
  51   0.0000       0.445494        12.1225 
  52   0.0000       0.464108        12.6290 
  53   0.0000       0.478387        13.0176 
  54   0.0000       0.481969        13.1150 
  55   0.0000       0.513456        13.9718 
  56   0.0000       0.535239        14.5646 
  57   0.0000       0.537479        14.6255 
  58   0.0000       0.540854        14.7174 
  59   0.0000       0.564608        15.3638 
  60   0.0000       0.610764        16.6197 
  61   0.0000       0.625107        17.0100 
  62   0.0000       0.663657        18.0590 
  63   0.0000       0.675741        18.3879 
  64   0.0000       0.711290        19.3552 
  65   0.0000       0.736937        20.0531 
  66   0.0000       0.742852        20.2140 
  67   0.0000       0.762151        20.7392 
  68   0.0000       0.799262        21.7490 
  69   0.0000       0.816348        22.2139 
  70   0.0000       0.823984        22.4217 
  71   0.0000       0.868966        23.6458 
  72   0.0000       0.927417        25.2363 
  73   0.0000       0.959698        26.1147 
  74   0.0000       0.989439        26.9240 
  75   0.0000       1.005415        27.3587 
  76   0.0000       1.040299        28.3080 
  77   0.0000       1.063724        28.9454 
  78   0.0000       1.076809        29.3015 
  79   0.0000       1.130876        30.7727 
  80   0.0000       1.145501        31.1707 
  81   0.0000       1.236317        33.6419 
  82   0.0000       1.254523        34.1373 
  83   0.0000       1.259744        34.2794 
  84   0.0000       1.297700        35.3122 
  85   0.0000       1.306388        35.5486 
  86   0.0000       1.314058        35.7573 
  87   0.0000       1.342173        36.5224 
  88   0.0000       1.346394        36.6372 
  89   0.0000       1.367174        37.2027 
  90   0.0000       1.430278        38.9198 
  91   0.0000       1.501171        40.8489 
  92   0.0000       1.510585        41.1051 
  93   0.0000       1.592528        43.3349 
  94   0.0000       1.618759        44.0487 
  95   0.0000       1.673723        45.5443 
  96   0.0000       1.736942        47.2646 
  97   0.0000       1.744586        47.4726 
  98   0.0000       1.821735        49.5719 
  99   0.0000       1.822130        49.5827 
 100   0.0000       1.845847        50.2281 
 101   0.0000       1.847584        50.2753 
 102   0.0000       1.872052        50.9411 
 103   0.0000       1.878052        51.1044 
 104   0.0000       2.038214        55.4626 
 105   0.0000       2.091625        56.9160 
 106   0.0000       2.102977        57.2249 
 107   0.0000       2.120443        57.7002 
 108   0.0000       2.131349        57.9970 
 109   0.0000       2.143209        58.3197 
 110   0.0000       2.158840        58.7450 
 111   0.0000       2.161049        58.8051 
 112   0.0000       2.249960        61.2245 
 113   0.0000       2.261933        61.5503 
 114   0.0000       2.299134        62.5626 
 115   0.0000       2.323107        63.2150 
 116   0.0000       2.370017        64.4914 
 117   0.0000       2.409788        65.5737 
 118   0.0000       2.415941        65.7411 
 119   0.0000       2.500490        68.0418 
 120   0.0000       2.541275        69.1516 
 121   0.0000       2.599090        70.7248 
 122   0.0000       2.622816        71.3705 
 123   0.0000       2.640695        71.8570 
 124   0.0000       2.656445        72.2856 
 125   0.0000       2.668724        72.6197 
 126   0.0000       2.679164        72.9038 
 127   0.0000       2.690709        73.2179 
 128   0.0000       2.694293        73.3154 
 129   0.0000       2.728221        74.2387 
 130   0.0000       2.770893        75.3998 
 131   0.0000       2.772438        75.4419 
 132   0.0000       2.793216        76.0073 
 133   0.0000       2.800143        76.1958 
 134   0.0000       2.842417        77.3461 
 135   0.0000       2.855042        77.6897 
 136   0.0000       2.885567        78.5203 
 137   0.0000       2.981035        81.1181 
 138   0.0000       3.014459        82.0276 
 139   0.0000       3.022189        82.2379 
 140   0.0000       3.050368        83.0047 
 141   0.0000       3.089208        84.0616 
 142   0.0000       3.112406        84.6929 
 143   0.0000       3.122760        84.9746 
 144   0.0000       3.166634        86.1685 
 145   0.0000       3.176907        86.4480 
 146   0.0000       3.262162        88.7679 
 147   0.0000       3.285411        89.4006 
 148   0.0000       3.285961        89.4156 
 149   0.0000       3.337541        90.8191 
 150   0.0000       3.413992        92.8995 
 151   0.0000       3.437933        93.5509 
 152   0.0000       3.446694        93.7893 
 153   0.0000       3.503076        95.3236 
 154   0.0000       3.527947        96.0003 
 155   0.0000       3.542475        96.3956 
 156   0.0000       3.549164        96.5777 
 157   0.0000       3.624408        98.6252 
 158   0.0000       3.986505       108.4783 
 159   0.0000       4.260377       115.9307 
 160   0.0000       4.390686       119.4766 
 161   0.0000       4.439267       120.7986 
 162   0.0000       4.799900       130.6119 
 163   0.0000      21.889035       595.6309 
 164   0.0000      21.999056       598.6247 
 165   0.0000      22.236016       605.0728 
 166   0.0000      43.569986      1185.5996 
 167   0.0000      43.664353      1188.1674 
 168   0.0000      43.787601      1191.5212 

                    ********************************
                    * MULLIKEN POPULATION ANALYSIS *
                    ********************************

-----------------------
MULLIKEN ATOMIC CHARGES
-----------------------
   0 C :   -0.506050
   1 C :    0.417583
   2 H :    0.171679
   3 H :    0.171772
   4 H :    0.177707
   5 O :   -0.180860
   6 C :   -0.301317
   7 H :    0.173363
   8 H :    0.153495
   9 H :    0.173401
  10 O :   -0.434491
  11 O :   -0.663012
  12 H :    0.291717
  13 H :    0.355014
Sum of atomic charges:    0.0000000

--------------------------------
MULLIKEN REDUCED ORBITAL CHARGES
--------------------------------
  0 C s       :     3.329682  s :     3.329682
      pz      :     1.093521  p :     3.150671
      px      :     0.961263
      py      :     1.095887
      dz2     :     0.006024  d :     0.025696
      dxz     :     0.002370
      dyz     :     0.004460
      dx2y2   :     0.005560
      dxy     :     0.007282
  1 C s       :     3.125724  s :     3.125724
      pz      :     0.756033  p :     2.331891
      px      :     0.800133
      py      :     0.775725
      dz2     :     0.011247  d :     0.124802
      dxz     :     0.013795
      dyz     :     0.022337
      dx2y2   :     0.030043
      dxy     :     0.047380
  2 H s       :     0.810153  s :     0.810153
      pz      :     0.005957  p :     0.018168
      px      :     0.003525
      py      :     0.008686
  3 H s       :     0.810058  s :     0.810058
      pz      :     0.010347  p :     0.018170
      px      :     0.003501
      py      :     0.004322
  4 H s       :     0.804554  s :     0.804554
      pz      :     0.003859  p :     0.017739
      px      :     0.007033
      py      :     0.006846
  5 O s       :     3.712408  s :     3.712408
      pz      :     1.729689  p :     4.436212
      px      :     1.110737
      py      :     1.595786
      dz2     :     0.003553  d :     0.032240
      dxz     :     0.005050
      dyz     :     0.007007
      dx2y2   :     0.001670
      dxy     :     0.014959
  6 C s       :     3.324127  s :     3.324127
      pz      :     1.118816  p :     2.934066
      px      :     0.729762
      py      :     1.085488
      dz2     :     0.008174  d :     0.043125
      dxz     :     0.007816
      dyz     :     0.005647
      dx2y2   :     0.010027
      dxy     :     0.011460
  7 H s       :     0.808963  s :     0.808963
      pz      :     0.005974  p :     0.017675
      px      :     0.002600
      py      :     0.009101
  8 H s       :     0.828984  s :     0.828984
      pz      :     0.004190  p :     0.017521
      px      :     0.005391
      py      :     0.007940
  9 H s       :     0.808923  s :     0.808923
      pz      :     0.010960  p :     0.017676
      px      :     0.002534
      py      :     0.004181
 10 O s       :     3.829924  s :     3.829924
      pz      :     1.449533  p :     4.584304
      px      :     1.805204
      py      :     1.329567
      dz2     :     0.003747  d :     0.020263
      dxz     :     0.001216
      dyz     :     0.007993
      dx2y2   :     0.008850
      dxy     :    -0.001544
 11 O s       :     3.781656  s :     3.781656
      pz      :     1.892276  p :     4.862967
      px      :     1.588703
      py      :     1.381987
      dz2     :     0.003226  d :     0.018389
      dxz     :     0.003822
      dyz     :     0.001526
      dx2y2   :     0.006309
      dxy     :     0.003506
 12 H s       :     0.661804  s :     0.661804
      pz      :     0.014637  p :     0.046480
      px      :     0.010236
      py      :     0.021606
 13 H s       :     0.597185  s :     0.597185
      pz      :     0.012715  p :     0.047801
      px      :     0.022323
      py      :     0.012763


                     *******************************
                     * LOEWDIN POPULATION ANALYSIS *
                     *******************************

----------------------
LOEWDIN ATOMIC CHARGES
----------------------
   0 C :   -0.335386
   1 C :    0.360696
   2 H :    0.181590
   3 H :    0.181670
   4 H :    0.175784
   5 O :   -0.594049
   6 C :   -0.045416
   7 H :    0.183111
   8 H :    0.177135
   9 H :    0.183149
  10 O :   -0.454048
  11 O :   -0.531806
  12 H :    0.249232
  13 H :    0.268338

-------------------------------
LOEWDIN REDUCED ORBITAL CHARGES
-------------------------------
  0 C s       :     2.960934  s :     2.960934
      pz      :     1.146620  p :     3.317577
      px      :     1.040308
      py      :     1.130649
      dz2     :     0.013878  d :     0.056875
      dxz     :     0.004517
      dyz     :     0.010693
      dx2y2   :     0.011195
      dxy     :     0.016592
  1 C s       :     2.743100  s :     2.743100
      pz      :     0.735757  p :     2.629512
      px      :     0.947652
      py      :     0.946102
      dz2     :     0.024010  d :     0.266692
      dxz     :     0.026104
      dyz     :     0.046448
      dx2y2   :     0.066006
      dxy     :     0.104124
  2 H s       :     0.774651  s :     0.774651
      pz      :     0.014378  p :     0.043760
      px      :     0.007626
      py      :     0.021755
  3 H s       :     0.774571  s :     0.774571
      pz      :     0.026337  p :     0.043759
      px      :     0.007580
      py      :     0.009842
  4 H s       :     0.781082  s :     0.781082
      pz      :     0.008867  p :     0.043134
      px      :     0.016961
      py      :     0.017306
  5 O s       :     3.486509  s :     3.486509
      pz      :     1.707836  p :     4.657059
      px      :     1.324154
      py      :     1.625069
      dz2     :     0.055602  d :     0.450481
      dxz     :     0.092571
      dyz     :     0.039217
      dx2y2   :     0.132624
      dxy     :     0.130466
  6 C s       :     2.914433  s :     2.914433
      pz      :     1.117393  p :     3.031111
      px      :     0.823263
      py      :     1.090455
      dz2     :     0.019427  d :     0.099872
      dxz     :     0.016753
      dyz     :     0.013983
      dx2y2   :     0.021907
      dxy     :     0.027802
  7 H s       :     0.775183  s :     0.775183
      pz      :     0.014575  p :     0.041705
      px      :     0.005597
      py      :     0.021533
  8 H s       :     0.783002  s :     0.783002
      pz      :     0.009330  p :     0.039863
      px      :     0.010625
      py      :     0.019908
  9 H s       :     0.775140  s :     0.775140
      pz      :     0.027205  p :     0.041710
      px      :     0.005473
      py      :     0.009032
 10 O s       :     3.546913  s :     3.546913
      pz      :     1.450622  p :     4.676823
      px      :     1.748823
      py      :     1.477377
      dz2     :     0.030814  d :     0.230312
      dxz     :     0.016428
      dyz     :     0.049498
      dx2y2   :     0.056651
      dxy     :     0.076921
 11 O s       :     3.547709  s :     3.547709
      pz      :     1.866782  p :     4.921554
      px      :     1.597444
      py      :     1.457329
      dz2     :     0.009008  d :     0.062542
      dxz     :     0.004447
      dyz     :     0.008899
      dx2y2   :     0.024201
      dxy     :     0.015988
 12 H s       :     0.625866  s :     0.625866
      pz      :     0.037783  p :     0.124902
      px      :     0.026781
      py      :     0.060338
 13 H s       :     0.599610  s :     0.599610
      pz      :     0.032587  p :     0.132052
      px      :     0.068454
      py      :     0.031011


                      *****************************
                      * MAYER POPULATION ANALYSIS *
                      *****************************

  NA   - Mulliken gross atomic population
  ZA   - Total nuclear charge
  QA   - Mulliken gross atomic charge
  VA   - Mayer's total valence
  BVA  - Mayer's bonded valence
  FA   - Mayer's free valence

  ATOM       NA         ZA         QA         VA         BVA        FA
  0 C      6.5060     6.0000    -0.5060     3.8795     3.8795    -0.0000
  1 C      5.5824     6.0000     0.4176     3.7942     3.7942    -0.0000
  2 H      0.8283     1.0000     0.1717     0.9580     0.9580    -0.0000
  3 H      0.8282     1.0000     0.1718     0.9580     0.9580    -0.0000
  4 H      0.8223     1.0000     0.1777     0.9588     0.9588    -0.0000
  5 O      8.1809     8.0000    -0.1809     1.9676     1.9676    -0.0000
  6 C      6.3013     6.0000    -0.3013     3.7715     3.7715     0.0000
  7 H      0.8266     1.0000     0.1734     0.9533     0.9533    -0.0000
  8 H      0.8465     1.0000     0.1535     0.9562     0.9562     0.0000
  9 H      0.8266     1.0000     0.1734     0.9533     0.9533    -0.0000
 10 O      8.4345     8.0000    -0.4345     1.9579     1.9579    -0.0000
 11 O      8.6630     8.0000    -0.6630     1.7633     1.7633     0.0000
 12 H      0.7083     1.0000     0.2917     0.9213     0.9213     0.0000
 13 H      0.6450     1.0000     0.3550     0.9226     0.9226     0.0000

  Mayer bond orders larger than 0.100000
B(  0-C ,  1-C ) :   0.9665 B(  0-C ,  2-H ) :   0.9474 B(  0-C ,  3-H ) :   0.9469 
B(  0-C ,  4-H ) :   0.9867 B(  1-C ,  5-O ) :   1.0754 B(  1-C , 10-O ) :   1.7959 
B(  5-O ,  6-C ) :   0.8547 B(  6-C ,  7-H ) :   0.9542 B(  6-C ,  8-H ) :   0.9662 
B(  6-C ,  9-H ) :   0.9542 B( 11-O , 12-H ) :   0.9177 B( 11-O , 13-H ) :   0.8303 


-------
TIMINGS
-------

Total SCF time: 0 days 0 hours 0 min 10 sec 

Total time                  ....      10.271 sec
Sum of individual times     ....      10.014 sec  ( 97.5%)

Fock matrix formation       ....       8.676 sec  ( 84.5%)
  Split-RI-J                ....       0.743 sec  (  8.6% of F)
  XC integration            ....       7.871 sec  ( 90.7% of F)
    Basis function eval.    ....       0.758 sec  (  9.6% of XC)
    Density eval.           ....       2.616 sec  ( 33.2% of XC)
    XC-Functional eval.     ....       0.690 sec  (  8.8% of XC)
    XC-Potential eval.      ....       1.437 sec  ( 18.3% of XC)
Diagonalization             ....       0.141 sec  (  1.4%)
Density matrix formation    ....       0.007 sec  (  0.1%)
Population analysis         ....       0.021 sec  (  0.2%)
Initial guess               ....       0.120 sec  (  1.2%)
Orbital Transformation      ....       0.000 sec  (  0.0%)
Orbital Orthonormalization  ....       0.000 sec  (  0.0%)
DIIS solution               ....       0.097 sec  (  0.9%)
SOSCF solution              ....       0.114 sec  (  1.1%)
Grid generation             ....       0.838 sec  (  8.2%)

Maximum memory used throughout the entire SCF-calculation: 18.4 MB


-------------------------------------------------------------------------------
                          DFT DISPERSION CORRECTION                            
                                                                               
                                 DFTD4 V2.5                                    
-------------------------------------------------------------------------------
The R2SCAN3C composite method is recognized
Using three-body term ABC
Active option DFTDOPT                   ...         5   

Starting D4
-------------------------   ----------------
Dispersion correction           -0.002715261
-------------------------   ----------------

------------------   -----------------
gCP correction             0.010785556
------------------   -----------------

-------------------------   --------------------
FINAL SINGLE POINT ENERGY      -344.767596931000
-------------------------   --------------------

[urraka:24856] mca_base_component_repository_open: unable to open mca_btl_openib: libibverbs.so.1: cannot open shared object file: No such file or directory (ignored)
[urraka:24854] mca_base_component_repository_open: unable to open mca_btl_openib: libibverbs.so.1: cannot open shared object file: No such file or directory (ignored)
[urraka:24855] mca_base_component_repository_open: unable to open mca_btl_openib: libibverbs.so.1: cannot open shared object file: No such file or directory (ignored)
[urraka:24857] mca_base_component_repository_open: unable to open mca_btl_openib: libibverbs.so.1: cannot open shared object file: No such file or directory (ignored)
[urraka:24853] mca_base_component_repository_open: unable to open mca_btl_openib: libibverbs.so.1: cannot open shared object file: No such file or directory (ignored)
[urraka:24858] mca_base_component_repository_open: unable to open mca_btl_openib: libibverbs.so.1: cannot open shared object file: No such file or directory (ignored)
[urraka:24861] mca_base_component_repository_open: unable to open mca_btl_openib: libibverbs.so.1: cannot open shared object file: No such file or directory (ignored)
[urraka:24864] mca_base_component_repository_open: unable to open mca_btl_openib: libibverbs.so.1: cannot open shared object file: No such file or directory (ignored)


           ************************************************************
           *        Program running with 8 parallel MPI-processes     *
           *              working on a common directory               *
           ************************************************************
------------------------------------------------------------------------------
                         ORCA SCF GRADIENT CALCULATION
------------------------------------------------------------------------------

Gradient of the Kohn-Sham DFT energy:
Kohn-Sham wavefunction type      ... RKS
Hartree-Fock exchange scaling    ...    0.000
Number of operators              ...    1
Number of atoms                  ...   14
Basis set dimensions             ...  169
Integral neglect threshold       ... 2.5e-11
Integral primitive cutoff        ... 2.5e-12
SHARK Integral package           ... ON

Nuc. rep. gradient       (SHARK) ... done (  0.0 sec)
HCore & Overlap gradient (SHARK) ... done (  0.1 sec)
RI-J gradient            (SHARK) ... done (  0.2 sec)
Exchange-correlation gradient    ... done
Dispersion correction            ... Starting D4
Starting D4


------------------- 
Dispersion Gradient 
------------------- 
   1  :   -0.000065262   -0.000018922   -0.000007476
   2  :   -0.000046377   -0.000015319   -0.000005996
   3  :   -0.000023520   -0.000013539    0.000003338
   4  :   -0.000023361   -0.000008184   -0.000011614
   5  :   -0.000025151    0.000001319    0.000000193
   6  :    0.000003001   -0.000032177   -0.000011311
   7  :    0.000050007   -0.000021206   -0.000006913
   8  :    0.000020625   -0.000000828   -0.000012491
   9  :    0.000028453   -0.000024955   -0.000008457
  10  :    0.000020362   -0.000008567    0.000009612
  11  :   -0.000020679    0.000023764    0.000008082
  12  :    0.000019043    0.000067671    0.000024253
  13  :    0.000014869    0.000021200    0.000007690
  14  :    0.000027755    0.000034388    0.000012483

  |G| =    0.000810412

Starting D4
Starting D4
Starting D4
Starting D4
Starting D4
Starting D4
done
gCP correction                   ... done

------------------
CARTESIAN GRADIENT
------------------

   1   C   :   -0.000014329    0.000023648   -0.000002348
   2   C   :    0.000005692   -0.000043997   -0.000018650
   3   H   :    0.000001856   -0.000002843   -0.000006822
   4   H   :    0.000003706   -0.000007554   -0.000000432
   5   H   :    0.000007097    0.000008823    0.000000516
   6   O   :    0.000002166   -0.000006972   -0.000006718
   7   C   :    0.000022612   -0.000039132   -0.000012474
   8   H   :   -0.000006822    0.000016896    0.000017414
   9   H   :   -0.000015137   -0.000003793   -0.000001668
  10   H   :   -0.000009823    0.000022630   -0.000001617
  11   O   :   -0.000008437    0.000052636    0.000000544
  12   O   :   -0.000020733    0.000020861   -0.000033476
  13   H   :    0.000016031    0.000005502   -0.000001983
  14   H   :   -0.000004115   -0.000042058    0.000069108

Difference to translation invariance:
           :   -0.0000202362    0.0000046471    0.0000013932

Difference to rotation invariance:
           :    0.0001094013   -0.0000952247   -0.0000746851

Norm of the cartesian gradient     ...    0.0001371624
RMS gradient                       ...    0.0000211646
MAX gradient                       ...    0.0000691078

-------
TIMINGS
-------

Total SCF gradient time            ...        2.688 sec

One electron gradient       ....       0.065 sec  (  2.4%)
RI-J Coulomb gradient       ....       0.246 sec  (  9.2%)
XC gradient                 ....       1.190 sec  ( 44.3%)

Maximum memory used throughout the entire SCFGRAD-calculation: 26.6 MB
------------------------------------------------------------------------------
                         ORCA GEOMETRY RELAXATION STEP
------------------------------------------------------------------------------

Reading the OPT-File                    .... done
Getting information on internals        .... done
Copying old internal coords+grads       .... done
Making the new internal coordinates     .... (new redundants).... done
Validating the new internal coordinates .... (new redundants).... done
Calculating the B-matrix                .... done
Calculating the G,G- and P matrices     .... done
Transforming gradient to internals      .... done
Projecting the internal gradient        .... done
Number of atoms                         ....  14
Number of internal coordinates          ....  72
Current Energy                          ....  -344.767596931 Eh
Current gradient norm                   ....     0.000137162 Eh/bohr
Maximum allowed component of the step   ....  0.300
Current trust radius                    ....  0.300
Evaluating the initial hessian          ....  (Almloef) done
Projecting the Hessian                  .... done
Forming the augmented Hessian           .... done
Diagonalizing the augmented Hessian     .... done
Last element of RFO vector              ....  0.999999831
Lowest eigenvalues of augmented Hessian:
 -0.000000021  0.012212729  0.012696065  0.016576721  0.028572120
Length of the computed step             ....  0.000581059
The final length of the internal step   ....  0.000581059
Converting the step to cartesian space:
 Initial RMS(Int)=    0.0000684785
Transforming coordinates:
 Iter   0:  RMS(Cart)=    0.0001009599 RMS(Int)=    0.0000684790
 Iter   1:  RMS(Cart)=    0.0000000056 RMS(Int)=    0.0000000041
done
Storing new coordinates                 .... done

                                .--------------------.
          ----------------------|Geometry convergence|-------------------------
          Item                value                   Tolerance       Converged
          ---------------------------------------------------------------------
          RMS gradient        0.0000088950            0.0001000000      YES
          MAX gradient        0.0000373624            0.0003000000      YES
          RMS step            0.0000684785            0.0020000000      YES
          MAX step            0.0003082572            0.0040000000      YES
          ........................................................
          Max(Bonds)      0.0002      Max(Angles)    0.01
          Max(Dihed)        0.01      Max(Improp)    0.00
          ---------------------------------------------------------------------

                    ***********************HURRAY********************
                    ***        THE OPTIMIZATION HAS CONVERGED     ***
                    *************************************************


    ---------------------------------------------------------------------------
                         Redundant Internal Coordinates

                          --- Optimized Parameters ---  
                            (Angstroem and degrees)

        Definition                    OldVal   dE/dq     Step     FinalVal
    ----------------------------------------------------------------------------
     1. B(C   1,C   0)                1.5019 -0.000010  0.0000    1.5019   
     2. B(H   2,C   0)                1.0940  0.000001 -0.0000    1.0940   
     3. B(H   3,C   0)                1.0941  0.000000 -0.0000    1.0941   
     4. B(H   4,C   0)                1.0893 -0.000001  0.0000    1.0893   
     5. B(O   5,C   1)                1.3431  0.000004 -0.0000    1.3431   
     6. B(C   6,O   5)                1.4484 -0.000002  0.0000    1.4484   
     7. B(H   7,C   6)                1.0930  0.000006 -0.0000    1.0929   
     8. B(H   8,C   6)                1.0897 -0.000005  0.0000    1.0897   
     9. B(H   9,C   6)                1.0930  0.000007 -0.0000    1.0930   
    10. B(O  10,C   1)                1.2149  0.000037 -0.0000    1.2149   
    11. B(H  12,O  11)                0.9609  0.000001 -0.0000    0.9609   
    12. B(H  13,H   9)                2.4474  0.000002  0.0001    2.4475   
    13. B(H  13,H   7)                2.4536  0.000002  0.0001    2.4537   
    14. B(H  13,O  10)                1.9777 -0.000010  0.0002    1.9779   
    15. B(H  13,O  11)                0.9696  0.000002 -0.0000    0.9696   
    16. A(H   3,C   0,H   4)          110.12  0.000010   -0.00    110.11   
    17. A(C   1,C   0,H   3)          109.83  0.000002   -0.00    109.83   
    18. A(H   2,C   0,H   4)          110.15  0.000009   -0.00    110.15   
    19. A(C   1,C   0,H   4)          109.57 -0.000013    0.00    109.57   
    20. A(C   1,C   0,H   2)          109.86 -0.000003    0.00    109.86   
    21. A(H   2,C   0,H   3)          107.28 -0.000005    0.00    107.28   
    22. A(C   0,C   1,O   5)          111.19  0.000012   -0.00    111.19   
    23. A(O   5,C   1,O  10)          124.06  0.000012   -0.00    124.06   
    24. A(C   0,C   1,O  10)          124.75 -0.000024    0.00    124.75   
    25. A(C   1,O   5,C   6)          115.88 -0.000008    0.00    115.89   
    26. A(H   8,C   6,H   9)          110.73  0.000012   -0.00    110.72   
    27. A(O   5,C   6,H   9)          110.52  0.000004    0.00    110.52   
    28. A(H   7,C   6,H   8)          110.73  0.000011   -0.00    110.73   
    29. A(H   7,C   6,H   9)          109.07 -0.000019    0.00    109.07   
    30. A(O   5,C   6,H   8)          105.24 -0.000010    0.00    105.24   
    31. A(O   5,C   6,H   7)          110.52  0.000002    0.00    110.52   
    32. A(C   6,H   7,H  13)           98.36  0.000012   -0.00     98.36   
    33. A(C   6,H   9,H  13)           98.71  0.000012   -0.00     98.71   
    34. A(C   1,O  10,H  13)          135.50 -0.000010   -0.00    135.49   
    35. A(H  12,O  11,H  13)          104.42  0.000031   -0.01    104.41   
    36. A(H   9,H  13,O  10)           73.45  0.000002   -0.00     73.45   
    37. A(H   7,H  13,O  10)           73.31  0.000002   -0.00     73.31   
    38. A(O  10,H  13,O  11)          170.74 -0.000001    0.00    170.74   
    39. A(H   7,H  13,H   9)           42.60 -0.000003    0.00     42.60   
    40. A(H   9,H  13,O  11)           98.04 -0.000002    0.00     98.05   
    41. A(H   7,H  13,O  11)           98.00 -0.000004    0.00     98.01   
    42. D(O  10,C   1,C   0,H   2)   -121.44 -0.000001   -0.01   -121.45   
    43. D(O   5,C   1,C   0,H   2)     58.57 -0.000001   -0.01     58.56   
    44. D(O   5,C   1,C   0,H   3)    -59.20  0.000006   -0.01    -59.21   
    45. D(O  10,C   1,C   0,H   4)     -0.30  0.000000   -0.01     -0.31   
    46. D(O   5,C   1,C   0,H   4)    179.71  0.000000   -0.01    179.71   
    47. D(O  10,C   1,C   0,H   3)    120.78  0.000006   -0.01    120.77   
    48. D(C   6,O   5,C   1,C   0)    179.94 -0.000000   -0.00    179.94   
    49. D(C   6,O   5,C   1,O  10)     -0.05 -0.000000   -0.00     -0.05   
    50. D(H   9,C   6,O   5,C   1)     60.43 -0.000011    0.01     60.44   
    51. D(H   8,C   6,O   5,C   1)   -179.99 -0.000000    0.00   -179.98   
    52. D(H   7,C   6,O   5,C   1)    -60.40  0.000009   -0.00    -60.41   
    53. D(H  13,H   7,C   6,H   8)   -154.49 -0.000003    0.00   -154.49   
    54. D(H  13,H   7,C   6,O   5)     89.30  0.000000    0.00     89.30   
    55. D(H  13,H   7,C   6,H   9)    -32.40  0.000006   -0.00    -32.40   
    56. D(H  13,H   9,C   6,O   5)    -89.17  0.000001   -0.00    -89.17   
    57. D(H  13,H   9,C   6,H   8)    154.62  0.000003   -0.00    154.61   
    58. D(H  13,H   9,C   6,H   7)     32.53 -0.000006    0.00     32.53   
    59. D(H  13,O  10,C   1,O   5)     -0.28  0.000003   -0.00     -0.29   
    60. D(H  13,O  10,C   1,C   0)    179.73  0.000003   -0.00    179.73   
    61. D(H   9,H  13,O  11,H  12)   -158.57 -0.000005    0.00   -158.57   
    62. D(H   7,H  13,O  11,H  12)    158.38 -0.000001   -0.00    158.38   
    63. D(H   9,H  13,O  10,C   1)    -21.94 -0.000001    0.00    -21.94   
    64. D(O  11,H  13,O  10,C   1)      1.86  0.000005    0.00      1.87   
    65. D(O  10,H  13,H   9,C   6)     63.60  0.000001   -0.00     63.60   
    66. D(H   7,H  13,H   9,C   6)    -19.54 -0.000001    0.00    -19.54   
    67. D(H   7,H  13,O  10,C   1)     22.61 -0.000004    0.00     22.62   
    68. D(O  11,H  13,H   9,C   6)   -112.64  0.000002   -0.00   -112.64   
    69. D(O  10,H  13,H   7,C   6)    -63.98  0.000000   -0.00    -63.98   
    70. D(H   9,H  13,H   7,C   6)     19.52  0.000001   -0.00     19.52   
    71. D(O  10,H  13,O  11,H  12)    178.42 -0.000010    0.00    178.43   
    72. D(O  11,H  13,H   7,C   6)    112.72  0.000001   -0.00    112.72   
    ----------------------------------------------------------------------------
                 *******************************************************
                 *** FINAL ENERGY EVALUATION AT THE STATIONARY POINT ***
                 ***               (AFTER    1 CYCLES)               ***
                 *******************************************************
---------------------------------
CARTESIAN COORDINATES (ANGSTROEM)
---------------------------------
  C     -3.911452   -0.281840   -0.076558
  C     -2.548917    0.308708    0.148238
  H     -4.033215   -1.179483    0.536819
  H     -4.016226   -0.586029   -1.122262
  H     -4.674226    0.452977    0.178060
  O     -1.581893   -0.574187   -0.150356
  C     -0.222460   -0.107868    0.029276
  H     -0.027366    0.758623   -0.607641
  H      0.408984   -0.948076   -0.258568
  H     -0.046781    0.168543    1.072015
  O     -2.340399    1.436996    0.547610
  O      0.136152    2.918053    1.105091
  H     -0.062691    3.805207    1.416004
  H     -0.732601    2.514976    0.953873

----------------------------
CARTESIAN COORDINATES (A.U.)
----------------------------
  NO LB      ZA    FRAG     MASS         X           Y           Z
   0 C     6.0000    0    12.011   -7.391574   -0.532601   -0.144673
   1 C     6.0000    0    12.011   -4.816755    0.583373    0.280128
   2 H     1.0000    0     1.008   -7.621672   -2.228899    1.014441
   3 H     1.0000    0     1.008   -7.589567   -1.107435   -2.120769
   4 H     1.0000    0     1.008   -8.833007    0.856003    0.336485
   5 O     8.0000    0    15.999   -2.989344   -1.085057   -0.284133
   6 C     6.0000    0    12.011   -0.420388   -0.203841    0.055323
   7 H     1.0000    0     1.008   -0.051714    1.433591   -1.148275
   8 H     1.0000    0     1.008    0.772869   -1.791604   -0.488623
   9 H     1.0000    0     1.008   -0.088404    0.318500    2.025814
  10 O     8.0000    0    15.999   -4.422713    2.715529    1.034834
  11 O     8.0000    0    15.999    0.257289    5.514321    2.088319
  12 H     1.0000    0     1.008   -0.118469    7.190800    2.675860
  13 H     1.0000    0     1.008   -1.384415    4.752615    1.802559

--------------------------------
INTERNAL COORDINATES (ANGSTROEM)
--------------------------------
 C      0   0   0     0.000000000000     0.00000000     0.00000000
 C      1   0   0     1.501926468888     0.00000000     0.00000000
 H      1   2   0     1.093991849164   109.85723884     0.00000000
 H      1   2   3     1.094078190673   109.83122593   242.22257129
 H      1   2   3     1.089316579956   109.57400971   121.14237934
 O      2   1   3     1.343055321646   111.18877097    58.56387294
 C      6   2   1     1.448371464776   115.88593788   179.94141514
 H      7   6   2     1.092946269473   110.51905227   299.59431592
 H      7   6   2     1.089736566337   105.24025925   180.01545150
 H      7   6   2     1.092964104815   110.52487676    60.43715690
 O      2   1   3     1.214912788368   124.75458942   238.55116143
 O     10   7   6     2.755787118360   105.92893830   251.29557072
 H     12  10   7     0.960858423992   155.69082959   130.83371090
 H     12  10   7     0.969571305380    61.56700232    71.57365760

---------------------------
INTERNAL COORDINATES (A.U.)
---------------------------
 C      0   0   0     0.000000000000     0.00000000     0.00000000
 C      1   0   0     2.838229699486     0.00000000     0.00000000
 H      1   2   0     2.067344987663   109.85723884     0.00000000
 H      1   2   3     2.067508149468   109.83122593   242.22257129
 H      1   2   3     2.058510009256   109.57400971   121.14237934
 O      2   1   3     2.538006740617   111.18877097    58.56387294
 C      6   2   1     2.737025408613   115.88593788   179.94141514
 H      7   6   2     2.065369128396   110.51905227   299.59431592
[...]
     26       0.106889  -0.035412   0.021679  -0.018503  -0.056826   0.105213
     27      -0.397694  -0.297426   0.082628  -0.077212  -0.363650   0.359620
     28       0.200014   0.056138   0.009447  -0.002311  -0.093109   0.062642
     29      -0.056803   0.033972  -0.019451   0.016175   0.098346  -0.092101
     30       0.011168  -0.052961   0.007653  -0.007749   0.008214  -0.007460
     31      -0.039107  -0.010992  -0.010441  -0.020585   0.014150  -0.011678
     32      -0.013623  -0.004611  -0.003588  -0.007318   0.003380  -0.006046
     33       0.001403   0.005632  -0.000749   0.000572   0.000575  -0.000528
     34      -0.000346   0.001659  -0.000273  -0.000168  -0.000440   0.000386
     35      -0.000104   0.000628  -0.000092  -0.000054  -0.000121   0.000164
     36      -0.011096  -0.031111   0.003530  -0.005599  -0.006353   0.005883
     37      -0.002298  -0.004414   0.000439  -0.001008  -0.001341   0.001305
     38      -0.000932  -0.001941   0.000212  -0.000411  -0.000631   0.000386
     39      -0.000238  -0.011453   0.002837  -0.001477  -0.002061   0.001922
     40       0.002615   0.006660  -0.000659   0.003560   0.005977  -0.004454
     41       0.000999   0.002834  -0.000324   0.001241   0.000301  -0.003315
                 30         31         32         33         34         35    
      0       0.000039   0.001964   0.000839   0.046062   0.008250   0.036558
      1      -0.000455   0.000594   0.000921   0.051802   0.007876   0.031594
      2       0.001318   0.000224   0.000331   0.018748   0.002965   0.011972
      3      -0.000215  -0.009780  -0.001377  -0.166124   0.001162  -0.001890
      4      -0.000956  -0.006239  -0.014187  -0.654291  -0.001848   0.000717
      5       0.002719  -0.002316  -0.005001  -0.232212  -0.000634   0.000235
      6       0.026356  -0.000557   0.000588   0.082695  -0.014912  -0.063915
      7      -0.007639  -0.004355   0.002750   0.107969  -0.118794  -0.499883
      8      -0.004948  -0.007035   0.003386   0.127030   0.083658   0.350952
      9      -0.026497  -0.000612   0.000596   0.082547  -0.012721  -0.054723
     10       0.008877  -0.007867   0.004240   0.162967  -0.038962  -0.164847
     11       0.000689   0.002652  -0.000858  -0.028159  -0.141146  -0.593502
     12       0.000502   0.007043  -0.006719  -0.191508  -0.068021  -0.296839
     13       0.012831   0.004724  -0.006695  -0.202089   0.066318   0.293557
     14      -0.035611   0.001789  -0.002458  -0.074195   0.023002   0.101878
     15      -0.000035   0.010445  -0.000857  -0.004084  -0.002381   0.000399
     16      -0.004117  -0.018820   0.000700   0.050724   0.000108  -0.000001
     17       0.011965  -0.006397   0.000238   0.017786   0.000006   0.000006
     18      -0.000300   0.009558   0.002686  -0.025962  -0.036641   0.008901
     19      -0.017099  -0.046765  -0.003811  -0.014564  -0.020756   0.004803
     20       0.049822  -0.016030  -0.001236  -0.005457  -0.007653   0.001774
     21       0.413081   0.045055  -0.007373   0.128213   0.098936  -0.023704
     22      -0.229717   0.366606   0.030077  -0.078103   0.474551  -0.112437
     23      -0.145386   0.528463   0.036592  -0.015772  -0.358529   0.084899
     24       0.007987  -0.306246  -0.019616   0.198446   0.269678  -0.063918
     25       0.235684  -0.233408  -0.015407   0.127028  -0.362395   0.086381
     26      -0.670337  -0.089675  -0.006219   0.047228  -0.124144   0.029592
     27      -0.415936   0.048690  -0.007272   0.128518   0.088043  -0.021116
     28       0.265575   0.619363   0.047264  -0.071895   0.145136  -0.034423
     29       0.024793  -0.181756  -0.009947  -0.033802   0.577673  -0.136852
     30       0.000048   0.000450  -0.000887   0.086236   0.000149  -0.000053
     31       0.000223   0.011699   0.009628   0.406721   0.000617  -0.000678
     32      -0.000641   0.004118   0.003358   0.144126   0.000221  -0.000234
     33       0.000038   0.005710  -0.058311   0.012617   0.000012  -0.000083
     34       0.000146  -0.001858   0.030934  -0.002815  -0.000318   0.000043
     35      -0.000445  -0.000594   0.010312  -0.000886  -0.000115   0.000014
     36      -0.000306  -0.060385   0.640482  -0.098395  -0.000649   0.000091
     37       0.000861  -0.011774   0.123535  -0.018404   0.000869  -0.000233
     38      -0.002639  -0.004810   0.050090  -0.007572   0.000301  -0.000082
     39      -0.000315  -0.017307   0.326917  -0.094712  -0.000658   0.000787
     40      -0.006423   0.033718  -0.637196   0.109234   0.002305  -0.000257
     41       0.019012   0.011894  -0.220949   0.038010   0.000834  -0.000089
                 36         37         38         39         40         41    
      0       0.001078   0.000008  -0.001163   0.047336   0.000017  -0.000014
      1       0.030914   0.000053   0.001893  -0.076309   0.000373  -0.000114
      2      -0.086359  -0.000189   0.000656  -0.026625   0.000130  -0.000040
      3      -0.000007   0.000001  -0.000892  -0.000237   0.000838  -0.000263
      4       0.000312  -0.000084  -0.000754  -0.002657  -0.002906   0.000952
      5      -0.000880   0.000271  -0.000274  -0.000952  -0.001010   0.000331
      6      -0.079115   0.000326  -0.000666   0.039542   0.001068  -0.000350
      7      -0.585417   0.000506  -0.005379   0.242181   0.000970  -0.000271
      8       0.385996  -0.000100   0.004145  -0.179301   0.000046  -0.000001
      9       0.068109  -0.000327  -0.000554   0.034700   0.001041  -0.000342
     10       0.206263  -0.000314  -0.001496   0.072626   0.000758  -0.000209
     11       0.667955  -0.000331  -0.006528   0.290998   0.000570  -0.000165
     12      -0.001780  -0.000090   0.014954  -0.629578  -0.000869   0.000273
     13       0.007357   0.000129  -0.014615   0.605584  -0.000132   0.000080
     14      -0.014648  -0.000052  -0.005064   0.209793  -0.000057   0.000033
     15       0.000003  -0.000009  -0.000092  -0.000287  -0.000751   0.000250
     16      -0.000041  -0.000195   0.000421   0.000272   0.000584  -0.000218
     17       0.000103   0.000533   0.000147   0.000086   0.000195  -0.000073
     18       0.000002   0.000801   0.033393   0.000318   0.000487  -0.000186
     19      -0.000004   0.032141  -0.084151  -0.002061  -0.000131  -0.000079
     20       0.000021  -0.089801  -0.029814  -0.000721  -0.000039  -0.000033
     21      -0.000375  -0.113076   0.058107   0.002416   0.000395   0.000025
     22      -0.000361  -0.565413   0.249631   0.007985   0.000744   0.000516
     23       0.000070   0.406483  -0.206401  -0.006415   0.000393  -0.000889
     24       0.000009   0.003555  -0.499790  -0.010690  -0.000966   0.000297
     25       0.000045   0.000779   0.680869   0.014681   0.000880  -0.000194
     26      -0.000145  -0.016754   0.233275   0.005034   0.000287  -0.000060
     27       0.000348   0.100081   0.053308   0.002227   0.000413   0.000003
     28       0.000215   0.185435   0.067655   0.002199   0.000849  -0.000151
     29       0.000188   0.669700   0.326862   0.010047   0.000194   0.001040
     30       0.000001  -0.000001   0.000249   0.000008  -0.000154  -0.000002
     31       0.000015  -0.000032   0.000375   0.001005   0.001490  -0.000551
     32      -0.000063   0.000067   0.000135   0.000353   0.000527  -0.000197
     33      -0.000004   0.000003   0.000120   0.000090  -0.055130   0.005433
     34       0.000013  -0.000006  -0.000160   0.000011  -0.009394   0.062189
     35      -0.000039   0.000034  -0.000057   0.000008  -0.003884   0.021994
     36      -0.000005  -0.000021  -0.000424   0.000066   0.030307   0.176437
     37       0.000024  -0.000225   0.000645   0.000045  -0.276317  -0.888196
     38      -0.000068   0.000707   0.000228   0.000019  -0.097177  -0.311492
     39       0.000019   0.000020  -0.002751  -0.000686   0.842013  -0.261016
     40       0.000049   0.000200   0.001742  -0.000235   0.420146  -0.095477
     41      -0.000114  -0.000647   0.000604  -0.000086   0.156886  -0.036344


-----------
IR SPECTRUM
-----------

 Mode   freq       eps      Int      T**2         TX        TY        TZ
       cm**-1   L/(mol*cm) km/mol    a.u.
----------------------------------------------------------------------------
  7:     21.03   0.000046    0.23  0.000683  (-0.000058 -0.008658  0.024661)
  8:     91.76   0.001903    9.62  0.006473  (-0.053372 -0.054805 -0.024909)
  9:     95.21   0.021380  108.05  0.070074  ( 0.003820  0.089359 -0.249147)
 10:    141.19   0.000638    3.23  0.001411  (-0.017682 -0.029377 -0.015340)
 11:    181.80   0.001444    7.30  0.002478  (-0.000759 -0.016714  0.046889)
 12:    203.88   0.000645    3.26  0.000987  ( 0.000715  0.011288 -0.029309)
 13:    292.71   0.002773   14.01  0.002956  ( 0.028552 -0.043762 -0.015023)
 14:    342.07   0.026022  131.51  0.023740  (-0.087435 -0.119116 -0.043662)
 15:    436.31   0.001483    7.50  0.001061  ( 0.030691  0.010186  0.003915)
 16:    516.79   0.012504   63.19  0.007551  (-0.000898 -0.029001  0.081907)
 17:    604.19   0.001687    8.52  0.000871  ( 0.000285  0.009887 -0.027809)
 18:    646.73   0.000655    3.31  0.000316  (-0.016954 -0.004996 -0.001937)
 19:    862.61   0.002648   13.38  0.000958  (-0.001913 -0.029136 -0.010265)
 20:    981.66   0.000623    3.15  0.000198  (-0.011612 -0.007487 -0.002670)
 21:   1055.98   0.001381    6.98  0.000408  (-0.000170  0.006591 -0.019094)
 22:   1058.37   0.012874   65.06  0.003796  ( 0.061475 -0.004043 -0.000765)
 23:   1160.28   0.000089    0.45  0.000024  ( 0.000077  0.001565 -0.004636)
 24:   1211.73   0.000048    0.24  0.000012  (-0.001003 -0.003178 -0.001118)
 25:   1279.18   0.053157  268.63  0.012968  ( 0.104875 -0.042253 -0.013556)
 26:   1387.60   0.010961   55.39  0.002465  (-0.049572 -0.002325 -0.001501)
 27:   1460.20   0.003726   18.83  0.000796  (-0.001779  0.026587  0.009289)
 28:   1467.04   0.003471   17.54  0.000738  (-0.020304 -0.006371 -0.016894)
 29:   1467.17   0.003230   16.32  0.000687  ( 0.019079  0.014693 -0.010345)
 30:   1482.11   0.002939   14.85  0.000619  ( 0.000338  0.008161 -0.023498)
 31:   1487.28   0.004935   24.94  0.001036  (-0.021373  0.022818  0.007622)
 32:   1669.80   0.013852   70.00  0.002589  ( 0.032461 -0.037031 -0.012794)
 33:   1769.39   0.061414  310.36  0.010831  (-0.008084 -0.097834 -0.034564)
 34:   3038.65   0.003046   15.39  0.000313  (-0.017635  0.001311  0.000259)
 35:   3040.90   0.000510    2.58  0.000052  ( 0.006746  0.002433  0.000972)
 36:   3119.17   0.000222    1.12  0.000022  ( 0.000129  0.001674 -0.004400)
 37:   3133.78   0.001404    7.09  0.000140  ( 0.000113  0.004046 -0.011109)
 38:   3161.32   0.001585    8.01  0.000156  ( 0.007063 -0.009747 -0.003406)
 39:   3167.79   0.000569    2.87  0.000056  ( 0.006297 -0.003815 -0.001353)
 40:   3706.53   0.063603  321.42  0.005355  ( 0.051298  0.048986  0.017994)
 41:   3902.09   0.020505  103.63  0.001640  (-0.017485 -0.034364 -0.012379)

* The epsilon (eps) is given for a Dirac delta lineshape.
** The dipole moment derivative (T) already includes vibrational overlap.

The first frequency considered to be a vibration is 7
The total number of vibrations considered is 35


--------------------------
THERMOCHEMISTRY AT 298.15K
--------------------------

Temperature         ... 298.15 K
Pressure            ... 1.00 atm
Total Mass          ... 92.09 AMU

Throughout the following assumptions are being made:
  (1) The electronic state is orbitally nondegenerate
  (2) There are no thermally accessible electronically excited states
  (3) Hindered rotations indicated by low frequency modes are not
      treated as such but are treated as vibrations and this may
      cause some error
  (4) All equations used are the standard statistical mechanics
      equations for an ideal gas
  (5) All vibrations are strictly harmonic

freq.      21.03  E(vib)   ...       0.56 
freq.      91.76  E(vib)   ...       0.47 
freq.      95.21  E(vib)   ...       0.47 
freq.     141.19  E(vib)   ...       0.41 
freq.     181.80  E(vib)   ...       0.37 
freq.     203.88  E(vib)   ...       0.35 
freq.     292.71  E(vib)   ...       0.27 
freq.     342.07  E(vib)   ...       0.23 
freq.     436.31  E(vib)   ...       0.17 
freq.     516.79  E(vib)   ...       0.13 
freq.     604.19  E(vib)   ...       0.10 
freq.     646.73  E(vib)   ...       0.09 
freq.     862.61  E(vib)   ...       0.04 
freq.     981.66  E(vib)   ...       0.02 
freq.    1055.98  E(vib)   ...       0.02 
freq.    1058.37  E(vib)   ...       0.02 
freq.    1160.28  E(vib)   ...       0.01 
freq.    1211.73  E(vib)   ...       0.01 
freq.    1279.18  E(vib)   ...       0.01 
freq.    1387.60  E(vib)   ...       0.00 
freq.    1460.20  E(vib)   ...       0.00 
freq.    1467.04  E(vib)   ...       0.00 
freq.    1467.17  E(vib)   ...       0.00 
freq.    1482.11  E(vib)   ...       0.00 
freq.    1487.28  E(vib)   ...       0.00 
freq.    1669.80  E(vib)   ...       0.00 
freq.    1769.39  E(vib)   ...       0.00 
freq.    3038.65  E(vib)   ...       0.00 
freq.    3040.90  E(vib)   ...       0.00 
freq.    3119.17  E(vib)   ...       0.00 
freq.    3133.78  E(vib)   ...       0.00 
freq.    3161.32  E(vib)   ...       0.00 
freq.    3167.79  E(vib)   ...       0.00 
freq.    3706.53  E(vib)   ...       0.00 
freq.    3902.09  E(vib)   ...       0.00 

------------
INNER ENERGY
------------

The inner energy is: U= E(el) + E(ZPE) + E(vib) + E(rot) + E(trans)
    E(el)   - is the total energy from the electronic structure calculation
              = E(kin-el) + E(nuc-el) + E(el-el) + E(nuc-nuc)
    E(ZPE)  - the the zero temperature vibrational energy from the frequency calculation
    E(vib)  - the the finite temperature correction to E(ZPE) due to population
              of excited vibrational states
    E(rot)  - is the rotational thermal energy
    E(trans)- is the translational thermal energy

Summary of contributions to the inner energy U:
Electronic energy                ...   -344.76759695 Eh
Zero point energy                ...      0.11309799 Eh      70.97 kcal/mol
Thermal vibrational correction   ...      0.00602364 Eh       3.78 kcal/mol
Thermal rotational correction    ...      0.00141627 Eh       0.89 kcal/mol
Thermal translational correction ...      0.00141627 Eh       0.89 kcal/mol
-----------------------------------------------------------------------
Total thermal energy                   -344.64564277 Eh


Summary of corrections to the electronic energy:
(perhaps to be used in another calculation)
Total thermal correction                  0.00885619 Eh       5.56 kcal/mol
Non-thermal (ZPE) correction              0.11309799 Eh      70.97 kcal/mol
-----------------------------------------------------------------------
Total correction                          0.12195418 Eh      76.53 kcal/mol


--------
ENTHALPY
--------

The enthalpy is H = U + kB*T
                kB is Boltzmann's constant
Total free energy                 ...   -344.64564277 Eh 
Thermal Enthalpy correction       ...      0.00094421 Eh       0.59 kcal/mol
-----------------------------------------------------------------------
Total Enthalpy                    ...   -344.64469857 Eh


Note: Only C1 symmetry has been detected, increase convergence thresholds 
      if your molecule has a higher symmetry. Symmetry factor of 1.0 is   
      used for the rotational entropy correction. 
 

Note: Rotational entropy computed according to Herzberg 
Infrared and Raman Spectra, Chapter V,1, Van Nostrand Reinhold, 1945 
Point Group:  C1, Symmetry Number:   1  
Rotational constants in cm-1:     0.173188     0.061839     0.046361 

Vibrational entropy computed according to the QRRHO of S. Grimme
Chem.Eur.J. 2012 18 9955


-------
ENTROPY
-------

The entropy contributions are T*S = T*(S(el)+S(vib)+S(rot)+S(trans))
     S(el)   - electronic entropy
     S(vib)  - vibrational entropy
     S(rot)  - rotational entropy
     S(trans)- translational entropy
The entropies will be listed as multiplied by the temperature to get
units of energy

Electronic entropy                ...      0.00000000 Eh      0.00 kcal/mol
Vibrational entropy               ...      0.01118268 Eh      7.02 kcal/mol
Rotational entropy                ...      0.01310243 Eh      8.22 kcal/mol
Translational entropy             ...      0.01875460 Eh     11.77 kcal/mol
-----------------------------------------------------------------------
Final entropy term                ...      0.04303971 Eh     27.01 kcal/mol

In case the symmetry of your molecule has not been determined correctly
or in case you have a reason to use a different symmetry number we print 
out the resulting rotational entropy values for sn=1,12 :
 --------------------------------------------------------
|  sn= 1 | S(rot)=       0.01310243 Eh      8.22 kcal/mol|
|  sn= 2 | S(rot)=       0.01244797 Eh      7.81 kcal/mol|
|  sn= 3 | S(rot)=       0.01206514 Eh      7.57 kcal/mol|
|  sn= 4 | S(rot)=       0.01179351 Eh      7.40 kcal/mol|
|  sn= 5 | S(rot)=       0.01158283 Eh      7.27 kcal/mol|
|  sn= 6 | S(rot)=       0.01141068 Eh      7.16 kcal/mol|
|  sn= 7 | S(rot)=       0.01126514 Eh      7.07 kcal/mol|
|  sn= 8 | S(rot)=       0.01113906 Eh      6.99 kcal/mol|
|  sn= 9 | S(rot)=       0.01102785 Eh      6.92 kcal/mol|
|  sn=10 | S(rot)=       0.01092837 Eh      6.86 kcal/mol|
|  sn=11 | S(rot)=       0.01083838 Eh      6.80 kcal/mol|
|  sn=12 | S(rot)=       0.01075623 Eh      6.75 kcal/mol|
 --------------------------------------------------------


-------------------
GIBBS FREE ENERGY
-------------------

The Gibbs free energy is G = H - T*S

Total enthalpy                    ...   -344.64469857 Eh 
Total entropy correction          ...     -0.04303971 Eh    -27.01 kcal/mol
-----------------------------------------------------------------------
Final Gibbs free energy         ...   -344.68773827 Eh

For completeness - the Gibbs free energy minus the electronic energy
G-E(el)                           ...      0.07985868 Eh     50.11 kcal/mol

[urraka:25327] mca_base_component_repository_open: unable to open mca_btl_openib: libibverbs.so.1: cannot open shared object file: No such file or directory (ignored)
[urraka:25328] mca_base_component_repository_open: unable to open mca_btl_openib: libibverbs.so.1: cannot open shared object file: No such file or directory (ignored)
[urraka:25326] mca_base_component_repository_open: unable to open mca_btl_openib: libibverbs.so.1: cannot open shared object file: No such file or directory (ignored)
[urraka:25330] mca_base_component_repository_open: unable to open mca_btl_openib: libibverbs.so.1: cannot open shared object file: No such file or directory (ignored)
[urraka:25325] mca_base_component_repository_open: unable to open mca_btl_openib: libibverbs.so.1: cannot open shared object file: No such file or directory (ignored)
[urraka:25324] mca_base_component_repository_open: unable to open mca_btl_openib: libibverbs.so.1: cannot open shared object file: No such file or directory (ignored)
[urraka:25331] mca_base_component_repository_open: unable to open mca_btl_openib: libibverbs.so.1: cannot open shared object file: No such file or directory (ignored)
[urraka:25335] mca_base_component_repository_open: unable to open mca_btl_openib: libibverbs.so.1: cannot open shared object file: No such file or directory (ignored)

Timings for individual modules:

Sum of individual times         ...      148.234 sec (=   2.471 min)
GTO integral calculation        ...        1.608 sec (=   0.027 min)   1.1 %
SCF iterations                  ...       15.074 sec (=   0.251 min)  10.2 %
SCF Gradient evaluation         ...        3.343 sec (=   0.056 min)   2.3 %
Geometry relaxation             ...        0.049 sec (=   0.001 min)   0.0 %
Analytical frequency calculation...      128.161 sec (=   2.136 min)  86.5 %
                             ****ORCA TERMINATED NORMALLY****
TOTAL RUN TIME: 0 days 0 hours 2 minutes 29 seconds 56 msec
