
                                 *****************
                                 * O   R   C   A *
                                 *****************

                                            #,                                       
                                            ###                                      
                                            ####                                     
                                            #####                                    
                                            ######                                   
                                           ########,                                 
                                     ,,################,,,,,                         
                               ,,#################################,,                 
                          ,,##########################################,,             
                       ,#########################################, ''#####,          
                    ,#############################################,,   '####,        
                  ,##################################################,,,,####,       
                ,###########''''           ''''###############################       
              ,#####''   ,,,,##########,,,,          '''####'''          '####       
            ,##' ,,,,###########################,,,                        '##       
           ' ,,###''''                  '''############,,,                           
         ,,##''                                '''############,,,,        ,,,,,,###''
      ,#''                                            '''#######################'''  
     '                                                          ''''####''''         
             ,#######,   #######,   ,#######,      ##                                
            ,#'     '#,  ##    ##  ,#'     '#,    #''#        ######   ,####,        
            ##       ##  ##   ,#'  ##            #'  '#       #        #'  '#        
            ##       ##  #######   ##           ,######,      #####,   #    #        
            '#,     ,#'  ##    ##  '#,     ,#' ,#      #,         ##   #,  ,#        
             '#######'   ##     ##  '#######'  #'      '#     #####' # '####'        



                  #######################################################
                  #                        -***-                        #
                  #          Department of theory and spectroscopy      #
                  #    Directorship and core code : Frank Neese         #
                  #        Max Planck Institute fuer Kohlenforschung    #
                  #                Kaiser Wilhelm Platz 1               #
                  #                 D-45470 Muelheim/Ruhr               #
                  #                      Germany                        #
                  #                                                     #
                  #                  All rights reserved                #
                  #                        -***-                        #
                  #######################################################


                         Program Version 5.0.4 -  RELEASE  -


 With contributions from (in alphabetic order):
   Daniel Aravena         : Magnetic Suceptibility
   Michael Atanasov       : Ab Initio Ligand Field Theory (pilot matlab implementation)
   Alexander A. Auer      : GIAO ZORA, VPT2 properties, NMR spectrum
   Ute Becker             : Parallelization
   Giovanni Bistoni       : ED, misc. LED, open-shell LED, HFLD
   Martin Brehm           : Molecular dynamics
   Dmytro Bykov           : SCF Hessian
   Vijay G. Chilkuri      : MRCI spin determinant printing, contributions to CSF-ICE
   Dipayan Datta          : RHF DLPNO-CCSD density
   Achintya Kumar Dutta   : EOM-CC, STEOM-CC
   Dmitry Ganyushin       : Spin-Orbit,Spin-Spin,Magnetic field MRCI
   Miquel Garcia          : C-PCM and meta-GGA Hessian, CC/C-PCM, Gaussian charge scheme
   Yang Guo               : DLPNO-NEVPT2, F12-NEVPT2, CIM, IAO-localization
   Andreas Hansen         : Spin unrestricted coupled pair/coupled cluster methods
   Benjamin Helmich-Paris : MC-RPA, TRAH-SCF, COSX integrals
   Lee Huntington         : MR-EOM, pCC
   Robert Izsak           : Overlap fitted RIJCOSX, COSX-SCS-MP3, EOM
   Marcus Kettner         : VPT2
   Christian Kollmar      : KDIIS, OOCD, Brueckner-CCSD(T), CCSD density, CASPT2, CASPT2-K
   Simone Kossmann        : Meta GGA functionals, TD-DFT gradient, OOMP2, MP2 Hessian
   Martin Krupicka        : Initial AUTO-CI
   Lucas Lang             : DCDCAS
   Marvin Lechner         : AUTO-CI (C++ implementation), FIC-MRCC
   Dagmar Lenk            : GEPOL surface, SMD
   Dimitrios Liakos       : Extrapolation schemes; Compound Job, initial MDCI parallelization
   Dimitrios Manganas     : Further ROCIS development; embedding schemes
   Dimitrios Pantazis     : SARC Basis sets
   Anastasios Papadopoulos: AUTO-CI, single reference methods and gradients
   Taras Petrenko         : DFT Hessian,TD-DFT gradient, ASA, ECA, R-Raman, ABS, FL, XAS/XES, NRVS
   Peter Pinski           : DLPNO-MP2, DLPNO-MP2 Gradient
   Christoph Reimann      : Effective Core Potentials
   Marius Retegan         : Local ZFS, SOC
   Christoph Riplinger    : Optimizer, TS searches, QM/MM, DLPNO-CCSD(T), (RO)-DLPNO pert. Triples
   Tobias Risthaus        : Range-separated hybrids, TD-DFT gradient, RPA, STAB
   Michael Roemelt        : Original ROCIS implementation
   Masaaki Saitow         : Open-shell DLPNO-CCSD energy and density
   Barbara Sandhoefer     : DKH picture change effects
   Avijit Sen             : IP-ROCIS
   Kantharuban Sivalingam : CASSCF convergence, NEVPT2, FIC-MRCI
   Bernardo de Souza      : ESD, SOC TD-DFT
   Georgi Stoychev        : AutoAux, RI-MP2 NMR, DLPNO-MP2 response
   Willem Van den Heuvel  : Paramagnetic NMR
   Boris Wezisla          : Elementary symmetry handling
   Frank Wennmohs         : Technical directorship


 We gratefully acknowledge several colleagues who have allowed us to
 interface, adapt or use parts of their codes:
   Stefan Grimme, W. Hujo, H. Kruse, P. Pracht,  : VdW corrections, initial TS optimization,
                  C. Bannwarth, S. Ehlert          DFT functionals, gCP, sTDA/sTD-DF
   Ed Valeev, F. Pavosevic, A. Kumar             : LibInt (2-el integral package), F12 methods
   Garnet Chan, S. Sharma, J. Yang, R. Olivares  : DMRG
   Ulf Ekstrom                                   : XCFun DFT Library
   Mihaly Kallay                                 : mrcc  (arbitrary order and MRCC methods)
   Jiri Pittner, Ondrej Demel                    : Mk-CCSD
   Frank Weinhold                                : gennbo (NPA and NBO analysis)
   Christopher J. Cramer and Donald G. Truhlar   : smd solvation model
   Lars Goerigk                                  : TD-DFT with DH, B97 family of functionals
   V. Asgeirsson, H. Jonsson                     : NEB implementation
   FAccTs GmbH                                   : IRC, NEB, NEB-TS, DLPNO-Multilevel, CI-OPT
                                                   MM, QMMM, 2- and 3-layer-ONIOM, Crystal-QMMM,
                                                   LR-CPCM, SF, NACMEs, symmetry and pop. for TD-DFT,
                                                   nearIR, NL-DFT gradient (VV10), updates on ESD,
                                                   ML-optimized integration grids
   S Lehtola, MJT Oliveira, MAL Marques          : LibXC Library
   Liviu Ungur et al                             : ANISO software


 Your calculation uses the libint2 library for the computation of 2-el integrals
 For citations please refer to: http://libint.valeyev.net

 Your ORCA version has been built with support for libXC version: 5.1.0
 For citations please refer to: https://tddft.org/programs/libxc/

 This ORCA versions uses:
   CBLAS   interface :  Fast vector & matrix operations
   LAPACKE interface :  Fast linear algebra routines
   SCALAPACK package :  Parallel linear algebra routines
   Shared memory     :  Shared parallel matrices
   BLAS/LAPACK       :  OpenBLAS 0.3.15  USE64BITINT DYNAMIC_ARCH NO_AFFINITY Zen SINGLE_THREADED
        Core in use  :  Zen
   Copyright (c) 2011-2014, The OpenBLAS Project




***************************************
The coordinates will be read from file: reactant.xyz
***************************************


Your calculation utilizes the geometrical counterpoise correction gCP
Please cite in your paper:
H.Kruse, S. Grimme J.Chem.Phys., 136, (2012), 154101 
   

Your calculation utilizes the atom-pairwise dispersion correction
based on tight binding partial charges (D4)
Cite in your paper:
E.Caldeweyher, C.Bannwarth, S.Grimme, J.Chem.Phys., (2017), 147, 034112.
E.Caldeweyher, S.Ehlert, A.Hansen, H.Neugebauer, S.Grimme, J.Chem.Phys., (2018), in progress.
   

Your calculation utilizes a Nudged-Elastic-Band implementation
 by V.Asgeirsson, C. Riplinger & H. Jonsson
Please cite in your paper:
 V. Asgeirsson et al., in prep. (2019)
   

================================================================================

----- Orbital basis set information -----
Your calculation utilizes the basis: def2-mTZVPP
   Stefan Grimme, Andreas Hansen, Sebastian Ehlert, and Jan-Michael Mewes 
   J. Chem. Phys. 154, 000000 (2021). DOI: 10.1063/5.0040021

----- AuxJ basis set information -----
Your calculation utilizes the basis: def2-mTZVPP/J
   Stefan Grimme, Andreas Hansen, Sebastian Ehlert, and Jan-Michael Mewes 
   J. Chem. Phys. 154, 000000 (2021). DOI: 10.1063/5.0040021

================================================================================
                                        WARNINGS
                       Please study these warnings very carefully!
================================================================================

Using LibXC functional ID 497 : Re-regularized SCAN exchange by Furness et al
[ 1]  J. W. Furness, A. D. Kaplan, J. Ning, J. P. Perdew, and J. Sun, J. Phys. Chem. Lett. 11, 8208 (2020)
[ 2]  J. W. Furness, A. D. Kaplan, J. Ning, J. P. Perdew, and J. Sun, J. Phys. Chem. Lett. 11, 9248 (2020)
Using LibXC functional ID 498 : Re-regularized SCAN correlation by Furness et al
[ 1]  J. W. Furness, A. D. Kaplan, J. Ning, J. P. Perdew, and J. Sun, J. Phys. Chem. Lett. 11, 8208 (2020)
[ 2]  J. W. Furness, A. D. Kaplan, J. Ning, J. P. Perdew, and J. Sun, J. Phys. Chem. Lett. 11, 9248 (2020)
Using LibXC functional ID 497 : Re-regularized SCAN exchange by Furness et al
[ 1]  J. W. Furness, A. D. Kaplan, J. Ning, J. P. Perdew, and J. Sun, J. Phys. Chem. Lett. 11, 8208 (2020)
[ 2]  J. W. Furness, A. D. Kaplan, J. Ning, J. P. Perdew, and J. Sun, J. Phys. Chem. Lett. 11, 9248 (2020)
Using LibXC functional ID 498 : Re-regularized SCAN correlation by Furness et al
[ 1]  J. W. Furness, A. D. Kaplan, J. Ning, J. P. Perdew, and J. Sun, J. Phys. Chem. Lett. 11, 8208 (2020)
[ 2]  J. W. Furness, A. D. Kaplan, J. Ning, J. P. Perdew, and J. Sun, J. Phys. Chem. Lett. 11, 9248 (2020)

WARNING: Geometry Optimization
  ===> : Switching off AutoStart
         For restart on a previous wavefunction, please use MOREAD

INFO   : the flag for use of the SHARK integral package has been found!

================================================================================
                                       INPUT FILE
================================================================================
NAME = inp
|  1> !r2scan-3c Opt D4 NEB-TS Freq
|  2> %pal
|  3>  nprocs 32
|  4> end
|  5> %NEB
|  6>  NEB_end_XYZFile "product.xyz"
|  7> end
|  8> * XYZfile 0 1 reactant.xyz
|  9> 
| 10>                          ****END OF INPUT****
================================================================================


--------------------------------------------------------------------------------
                        Nudged Elastic Band Calculation
--------------------------------------------------------------------------------

Number of images (incl. end points)     ....  10
Number of intermediate images           ....  8
Number of optimized images              ....  8
Optimization of end points before NEB   ....  NO
Use existing gbw files for MO input     ....  NO
Number of atoms                         ....  14
Number of (active) degrees of freedom   ....  42
Constrained atoms                       ....  None

-----------------------------------------
  REACTANT (ANGSTROEM)
-----------------------------------------
C     -3.911452    -0.281840    -0.076558 
C     -2.548917     0.308708     0.148238 
H     -4.033215    -1.179483     0.536819 
H     -4.016226    -0.586029    -1.122262 
H     -4.674226     0.452977     0.178060 
O     -1.581893    -0.574187    -0.150356 
C     -0.222460    -0.107868     0.029276 
H     -0.027366     0.758623    -0.607641 
H      0.408984    -0.948076    -0.258568 
H     -0.046781     0.168543     1.072015 
O     -2.340399     1.436996     0.547610 
O      0.136152     2.918053     1.105091 
H     -0.062691     3.805207     1.416004 
H     -0.732601     2.514976     0.953873 

-----------------------------------------
  PRODUCT (ANGSTROEM)
-----------------------------------------
C     -2.891328    -0.283393    -0.119695 
C     -2.098441     0.910651     0.311716 
H     -3.562713    -0.590139     0.688738 
H     -2.218836    -1.125867    -0.316893 
H     -3.467244    -0.033280    -1.009669 
O      0.075027    -1.883519     0.430609 
C      0.829825    -1.143436    -0.524844 
H      0.224408    -0.377591    -1.035114 
H      1.182880    -1.855463    -1.275257 
H      1.705313    -0.654028    -0.073665 
O     -2.089800     1.998344    -0.207500 
O     -1.338985     0.634351     1.420860 
H     -0.868845     1.454991     1.639428 
H     -0.244972    -1.257161     1.091556 



----------------------
NEB settings
----------------------
Method type                             ....  climbing image
Threshold for climbing image            ....  2.00e-02 Eh/Bohr 
Free endpoints                          ....  off 
Tangent type                            ....  improved 
Number of intermediate images           ....  8 
Number of images free to move           ....  8 
Spring type for image distribution      ....  distance between adjacent images 
Spring constant                         ....  energy weighted (0.0100 -to- 0.1000) Eh/Bohr^2 
Spring force perp. to the path          ....  none 
Generation of initial path              ....  image dependent pair potential 
Initial path via TS guess               ....  off 

Minimization of RMSD: Rotation          ....  always 
Minimization of RMSD: Translation type  ....  centroid 
Center fixed to origin                  ....  true 
Remove external force                   ....  true 

Reparametrization of the path           ....  off 
Convergence thresholds:
Convergence monitored for               ....  all images
Scaling factor                          ....  10.00

Convergence parameters for regular images:
               Max(|Fp|)                ....  2.00e-02 Eh/Bohr
               RMS(Fp)                  ....  1.00e-02 Eh/Bohr

Convergence parameters for climbing image:
               Max(|F|)                 ....  2.00e-03 Eh/Bohr
               RMS(F)                   ....  1.00e-03 Eh/Bohr
Optimization method:
Method                                  ....  L-BFGS
Max. iterations                         ....  500 
Step size                               ....  1.00 
Maximum allowed step size               ....  0.10 Bohr

LBFGS parameters: 
               Memory                   ....  20 
               Initial step size        ....  0.0010 
               Estimate curvature       ....  YES 
               Reset on maxmove         ....  YES 
               Reparam. on reset        ....  NO 
Generation of  the initial path:
Minimize RMSD between reactant and product configurations     .... done
       RMSD before minimization         ....  2.1622 Bohr
       RMSD after minimization          ....  1.7139 Bohr
Performing linear interpolation         ....  done
Interpolation using                     ....  IDPP (Image Dependent Pair Potential)
IDPP-Settings:
       Remove global transl. and rot.   ...   true
       Convergence tolerance            ....  0.0100 1/Ang.^3
       Max. numer of iterations         ....    7000
       Spring constant                  ....  1.0000 1/Ang.^4
       Time step                        ....  0.0100 fs
       Max. movement per iteration      ....  0.0500 Ang.
       Full print                       ....  false 
idpp initial path generation successfully converged in 119 iterations
Displacement along initial path:             12.1056 Bohr
Writing initial trajectory to file      ....  inp_initial_path_trj.xyz



----------------------
NEB OPTIMIZATION      
----------------------

Following output files will be written:
Energy profile during opt. written to    ....  inp.interp
Optimization log-file                    ....  inp.NEB.log
Current trajectory will be written to    ....  inp_MEP_trj.xyz
       and to allxyz file                ....  inp_MEP.allxyz
       and individual images to xyz file ....  inp_im{NIm}.xyz
Trajectory history will be written to    ....  inp_MEP_ALL_trj.xyz
Converged CI will be written to          ....  inp_NEB-CI_converged.xyz
Converged TS will be written to          ....  inp_NEB-TS_converged.xyz

Single point energy and gradient calculation of reactant and
product configurations (have to be performed only once)
Properties of fixed NEB end points:
               Reactant:
                         E               ....   -344.767597 Eh
                         RMS(F)          ....      0.000018 Eh/Bohr
                         MAX(|F|)        ....      0.000072 Eh/Bohr
               Product:
                         E               ....   -344.758460 Eh
                         RMS(F)          ....      0.000047 Eh/Bohr
                         MAX(|F|)        ....      0.000120 Eh/Bohr



Starting iterations:

Optim.  Iteration  HEI  E(HEI)-E(0)  max(|Fp|)   RMS(Fp)    dS
Switch-on CI threshold               0.020000 
   LBFGS     0      5    0.309093    0.108671   0.025304  12.1056       
   LBFGS     1      5    0.292893    0.090599   0.020990  12.0545       
   LBFGS     2      5    0.282099    0.104663   0.022361  12.0480       
   LBFGS     3      5    0.269606    0.086614   0.018313  12.0610       
   LBFGS     4      6    0.259685    0.095999   0.019244  12.1035       
   LBFGS     5      6    0.248654    0.111836   0.019332  12.1389       
   LBFGS     6      6    0.237723    0.076182   0.015941  12.1942       
   LBFGS     7      6    0.224968    0.077247   0.013551  12.3074       
   LBFGS     8      6    0.218181    0.058566   0.011324  12.3584       
   LBFGS     9      6    0.210759    0.069160   0.012069  12.4369       
   LBFGS    10      6    0.199357    0.080604   0.012001  12.5646       
   LBFGS    11      6    0.193117    0.107956   0.013881  12.6039       
   LBFGS    12      6    0.185843    0.040335   0.008160  12.6267       
   LBFGS    13      6    0.174088    0.029930   0.006844  12.7599       
   LBFGS    14      6    0.177850    0.176581   0.019826  12.8909       
   LBFGS    15      6    0.165295    0.101185   0.012697  12.9621       
   LBFGS    16      6    0.154735    0.063532   0.009020  13.1591       
   LBFGS    17      6    0.152241    0.032104   0.005953  13.1660       
   LBFGS    18      6    0.150932    0.036806   0.006447  13.1800       
   LBFGS    19      6    0.144860    0.052403   0.008601  13.2989       
   LBFGS    20      6    0.142897    0.051414   0.007291  13.3383       
   LBFGS    21      6    0.141151    0.032823   0.005918  13.3677       
   LBFGS    22      6    0.134343    0.030640   0.006141  13.5901       
   LBFGS    23      6    0.133121    0.062009   0.009319  13.6091       
   LBFGS    24      6    0.129863    0.038754   0.007345  13.6576       
   LBFGS    25      6    0.126153    0.049282   0.008297  13.8127       
   LBFGS    26      6    0.125404    0.048257   0.006474  13.9007       
   LBFGS    27      6    0.123319    0.026322   0.005187  13.9639       
   LBFGS    28      6    0.120655    0.045970   0.007716  14.1800       
   LBFGS    29      6    0.121044    0.064050   0.007990  14.1412       
   LBFGS    30      6    0.118171    0.032534   0.005237  14.1528       
   LBFGS    31      6    0.116787    0.048978   0.007634  14.2369       
   LBFGS    32      6    0.116594    0.057950   0.009706  14.3632       
   LBFGS    33      6    0.114749    0.052331   0.006527  14.4535       
   LBFGS    34      6    0.112787    0.026710   0.004134  14.4980       
   LBFGS    35      6    0.111532    0.031043   0.005971  14.6675       
   LBFGS    36      6    0.110997    0.047388   0.007687  14.8364       
   LBFGS    37      6    0.110716    0.063823   0.006981  14.7916       
   LBFGS    38      6    0.108237    0.026761   0.004061  14.7881       
   LBFGS    39      6    0.107022    0.036064   0.005502  14.8196       
   LBFGS    40      6    0.107140    0.056407   0.007886  14.9294       
   LBFGS    41      6    0.105604    0.042498   0.004955  15.0160       
   LBFGS    42      6    0.104155    0.014692   0.003310  15.0635       

Image  6 will be converted to a climbing image in the next iteration (max(|Fp|) < 0.0200) 

Optim.  Iteration  CI   E(CI)-E(0)   max(|Fp|)   RMS(Fp)    dS     max(|FCI|)   RMS(FCI)
Convergence thresholds               0.020000   0.010000            0.002000    0.001000 
   LBFGS    43      6    0.103732    0.016435   0.003023  15.0796    0.016113    0.005425       
   LBFGS    44      6    0.104389    0.050726   0.005958  15.2269    0.056103    0.015861       
   LBFGS    45      6    0.101996    0.028613   0.003684  15.2643    0.043260    0.010525       
   LBFGS    46      6    0.101060    0.015068   0.002958  15.2836    0.020074    0.005334       
   LBFGS    47      6    0.100812    0.022042   0.003873  15.4261    0.035657    0.009785       
   LBFGS    48      6    0.101136    0.038383   0.005745  15.6507    0.056315    0.016168       
   LBFGS    49      6    0.098840    0.026738   0.003572  15.6130    0.048406    0.012734       
   LBFGS    50      6    0.097287    0.012842   0.002628  15.6092    0.017868    0.004849       
   LBFGS    51      6    0.096545    0.034248   0.003726  15.6165    0.020372    0.005754       
   LBFGS    52      6    0.096458    0.054933   0.005504  15.6936    0.038631    0.011587       
   LBFGS    53      6    0.096722    0.066505   0.006787  15.8830    0.058626    0.017775       
   LBFGS    54      6    0.092941    0.016462   0.002846  15.9452    0.031825    0.008961       
   LBFGS    55      6    0.092011    0.008660   0.002254  15.9628    0.009993    0.003430       
   LBFGS    56      6    0.091373    0.018144   0.002947  16.0258    0.020762    0.005838       
   LBFGS    57      6    0.090822    0.029942   0.004085  16.1390    0.038749    0.011352       
   LBFGS    58      6    0.089238    0.038060   0.005544  16.3153    0.047301    0.013796       
   LBFGS    59      6    0.087263    0.018258   0.003314  16.2885    0.032104    0.009518       
   LBFGS    60      6    0.086278    0.009763   0.002217  16.2856    0.012404    0.003947       
   LBFGS    61      6    0.085620    0.034558   0.003126  16.3017    0.011721    0.003520       
   LBFGS    62      6    0.085480    0.046268   0.004413  16.3639    0.028263    0.008460       
   LBFGS    63      6    0.085571    0.045674   0.005648  16.5219    0.047458    0.013993       
   LBFGS    64      6    0.083222    0.012665   0.002797  16.5373    0.025877    0.007206       
   LBFGS    65      6    0.082585    0.009867   0.001975  16.5428    0.010642    0.003411       
   LBFGS    66      6    0.081966    0.011669   0.002548  16.5630    0.011266    0.003304       
   LBFGS    67      6    0.081690    0.018861   0.003408  16.6034    0.024178    0.007072       
   LBFGS    68      6    0.080947    0.023958   0.004717  16.6943    0.027717    0.008559       
   LBFGS    69      6    0.080038    0.021278   0.003052  16.6872    0.022754    0.007021       
   LBFGS    70      6    0.079349    0.010634   0.002010  16.6947    0.010198    0.003406       
   LBFGS    71      6    0.078791    0.013723   0.002342  16.7373    0.007154    0.002437       
   LBFGS    72      6    0.078778    0.023004   0.003127  16.8070    0.019502    0.006311       
   LBFGS    73      6    0.078525    0.027628   0.004404  16.9285    0.021238    0.007588       
   LBFGS    74      6    0.077494    0.016665   0.002929  16.8970    0.018546    0.005544       
   LBFGS    75      6    0.076920    0.011266   0.001976  16.8815    0.009880    0.003233       
   LBFGS    76      6    0.076418    0.008928   0.002000  16.8657    0.004685    0.002125       
   LBFGS    77      6    0.076543    0.011078   0.002312  16.8815    0.014951    0.005065       
   LBFGS    78      6    0.076558    0.017858   0.003040  16.9447    0.014955    0.005681       
   LBFGS    79      6    0.075626    0.019774   0.003162  16.9475    0.017719    0.005471       
   LBFGS    80      6    0.074986    0.009994   0.001913  16.9569    0.008818    0.002775       
   LBFGS    81      6    0.074693    0.007735   0.001486  16.9905    0.005527    0.001875       
   LBFGS    82      6    0.074839    0.012590   0.001833  17.0233    0.011474    0.004137       
   LBFGS    83      6    0.075055    0.017530   0.002587  17.0992    0.015171    0.005444       
   LBFGS    84      6    0.074245    0.017490   0.002610  17.0802    0.013653    0.004430       
   LBFGS    85      6    0.073805    0.010184   0.001768  17.0724    0.008471    0.002625       
   LBFGS    86      6    0.073604    0.006997   0.001198  17.0767    0.005171    0.001890       
   LBFGS    87      6    0.073729    0.010880   0.001544  17.0906    0.009228    0.003513       
   LBFGS    88      6    0.073932    0.016889   0.002073  17.1387    0.012594    0.005003       
   LBFGS    89      6    0.073438    0.015286   0.002140  17.1415    0.017086    0.004803       
   LBFGS    90      6    0.073059    0.010005   0.001504  17.1455    0.010630    0.003044       
   LBFGS    91      6    0.072810    0.004449   0.001015  17.1717    0.005315    0.001498       
   LBFGS    92      6    0.072917    0.010001   0.001305  17.1924    0.010016    0.003112       
   LBFGS    93      6    0.073201    0.013490   0.001900  17.2508    0.018634    0.005238       
   LBFGS    94      6    0.072748    0.009290   0.001531  17.2381    0.012922    0.004087       
   LBFGS    95      6    0.072485    0.006441   0.001170  17.2325    0.008732    0.002633       
   LBFGS    96      6    0.072327    0.004576   0.000988  17.2275    0.003999    0.001462       
   LBFGS    97      6    0.072471    0.012792   0.001561  17.2337    0.008274    0.003146       
   LBFGS    98      6    0.072633    0.017957   0.002179  17.2574    0.013033    0.004621       
   LBFGS    99      6    0.072617    0.025374   0.002560  17.3086    0.016221    0.005308       
   LBFGS   100      6    0.072176    0.008885   0.001223  17.3073    0.007739    0.002520       
   LBFGS   101      6    0.072036    0.007066   0.001053  17.3081    0.007177    0.002154       
   LBFGS   102      6    0.071995    0.012191   0.001657  17.3405    0.007924    0.002393       
   LBFGS   103      6    0.072129    0.022730   0.002594  17.3582    0.011259    0.003513       
   LBFGS   104      6    0.071894    0.010627   0.001414  17.3522    0.006319    0.001940       
   LBFGS   105      6    0.071716    0.005497   0.000913  17.3636    0.005954    0.001478       
   LBFGS   106      6    0.071641    0.020373   0.002159  17.4287    0.011363    0.002813       
   LBFGS   107      6    0.071586    0.015660   0.002165  17.5046    0.011524    0.003211       
   LBFGS   108      6    0.071459    0.005611   0.001014  17.4949    0.004162    0.001466       
   LBFGS   109      6    0.071434    0.004457   0.000828  17.4878    0.003359    0.001164       
   LBFGS   110      6    0.071396    0.005116   0.001038  17.4554    0.002190    0.000726       
   LBFGS   111      6    0.071394    0.018802   0.002303  17.4521    0.003218    0.000997       
   LBFGS   112      6    0.071378    0.009208   0.001177  17.4530    0.002718    0.000836       
   LBFGS   113      6    0.071331    0.003678   0.000727  17.4570    0.001648    0.000556       

                                .--------------------.
          ----------------------| CI-NEB convergence |-------------------------
          Item                value                   Tolerance       Converged
          ---------------------------------------------------------------------
          RMS(Fp)             0.0007274318            0.0100000000      YES
          MAX(|Fp|)           0.0036779316            0.0200000000      YES
          RMS(FCI)            0.0005562019            0.0010000000      YES
          MAX(|FCI|)          0.0016479373            0.0020000000      YES
          ---------------------------------------------------------------------

The elastic band and climbing image have converged successfully to a MEP in 113 iterations!


                    *********************H U R R A Y*********************
                    ***        THE NEB OPTIMIZATION HAS CONVERGED     ***
                    *****************************************************



---------------------------------------------------------------
                         PATH SUMMARY              
---------------------------------------------------------------
All forces in Eh/Bohr.

Image Dist.(Ang.)    E(Eh)   dE(kcal/mol)  max(|Fp|)  RMS(Fp)
  0     0.000    -344.76760      0.00       0.00007   0.00002
  1     1.867    -344.76387      2.34       0.00125   0.00054
  2     3.726    -344.75900      5.39       0.00296   0.00082
  3     5.154    -344.75438      8.29       0.00148   0.00057
  4     5.617    -344.73175     22.50       0.00356   0.00114
  5     5.909    -344.70715     37.93       0.00239   0.00088
  6     6.161    -344.69627     44.76       0.00158   0.00052 <= CI
  7     6.564    -344.72084     29.34       0.00368   0.00101
  8     7.169    -344.75168      9.99       0.00201   0.00062
  9     9.238    -344.75846      5.73       0.00012   0.00005

Straight line distance between images along the path:
        D( 0- 1) =   1.8671 Ang.
        D( 1- 2) =   1.8589 Ang.
        D( 2- 3) =   1.4279 Ang.
        D( 3- 4) =   0.4628 Ang.
        D( 4- 5) =   0.2926 Ang.
        D( 5- 6) =   0.2520 Ang.
        D( 6- 7) =   0.4023 Ang.
        D( 7- 8) =   0.6049 Ang.
        D( 8- 9) =   2.0693 Ang.

---------------------------------------------------------------
               INFORMATION ABOUT SADDLE POINT     
---------------------------------------------------------------

Climbing image                            ....  6 
Energy                                    ....  -344.69626627 Eh
Max. abs. force                           ....  1.6479e-03 Eh/Bohr

-----------------------------------------
  SADDLE POINT (ANGSTROEM)
-----------------------------------------
C     -1.866868    -0.271108     0.083954 
C     -0.621996     0.456860    -0.294506 
H     -1.936729    -0.408955     1.162032 
H     -1.833713    -1.249039    -0.405214 
H     -2.728340     0.290907    -0.287719 
O      0.647850    -0.588253     0.407533 
C      1.772562    -0.757011    -0.448765 
H      1.629084    -0.185962    -1.375324 
H      1.882852    -1.820117    -0.692557 
H      2.685634    -0.404006     0.043027 
O     -0.319702     1.002275    -1.308191 
O     -0.162520     1.366069     1.198372 
H      0.268589     2.158417     0.848327 
H      0.583298     0.409923     1.069031 

-----------------------------------------
  FORCES (Eh/Bohr)
-----------------------------------------
C      0.000308     0.000183    -0.000017 
C     -0.000378     0.000629    -0.000723 
H      0.000135    -0.000452    -0.000298 
H     -0.000924     0.000524    -0.000288 
H      0.000386     0.000432     0.000970 
O     -0.000143    -0.001648     0.000933 
C      0.000395     0.000532    -0.000218 
H      0.000334     0.000440    -0.000610 
H     -0.000177     0.000592     0.000439 
H      0.000463    -0.000083     0.000547 
O     -0.000261    -0.000833     0.000503 
O     -0.000628     0.000245    -0.000658 
H     -0.000330    -0.000042    -0.000385 
H      0.000821    -0.000517    -0.000196 

-----------------------------------------
  UNIT TANGENT
-----------------------------------------
C     -0.007763     0.042713     0.021683 
C     -0.189435     0.450356     0.185071 
H     -0.034093     0.000006     0.012349 
H      0.078670     0.066577    -0.021859 
H     -0.051773    -0.024825     0.018946 
O      0.217934    -0.049727     0.274366 
C      0.048860    -0.004609     0.063714 
H     -0.052816     0.004493     0.067109 
H      0.011667     0.002541     0.012936 
H      0.087216    -0.015481    -0.031197 
O     -0.019589     0.056982     0.017761 
O     -0.249695    -0.004669    -0.320091 
H     -0.067887     0.005638    -0.084778 
H      0.228705    -0.529994    -0.216013 
 => Unit tangent is an approximation to the TS mode at the saddle point

Next a TS optimization is performed on the CI from the NEB run.

         *************************************************************
         *                       TS OPTIMIZATION                     *
         *************************************************************


Following output files will be written:
Converged TS will be written to          ....  inp_NEB-TS_converged.xyz
                                         ....  inp.xyz
Current trajectory will be written to    ....  inp_trj.xyz
Initial Hessian will be stored in        ....  inp.appr.hess
Geometry optimization settings:
Update method            Update   .... Bofill
Choice of coordinates    CoordSys .... Z-matrix Internals
Initial Hessian          InHess   .... Read

Convergence Tolerances:
Energy Change            TolE     ....  5.0000e-06 Eh
Max. Gradient            TolMAXG  ....  3.0000e-04 Eh/bohr
RMS Gradient             TolRMSG  ....  1.0000e-04 Eh/bohr
Max. Displacement        TolMAXD  ....  4.0000e-03 bohr
RMS Displacement         TolRMSD  ....  2.0000e-03 bohr
Strict Convergence                ....  False
------------------------------------------------------------------------------
                        ORCA OPTIMIZATION COORDINATE SETUP
------------------------------------------------------------------------------

The optimization will be done in new redundant internal coordinates
Making redundant internal coordinates   ...  (new redundants) done
Following TS mode number                ...     0
TS-active-atoms for coordinate setup... 1 5 11 13 
Evaluating the initial hessian          ... (Reading Exact Hessian)...  
InHessName: inp.appr.hess	The file <inp.appr.hess> is opened as a .hess file
done
done
Diagonalizing the Hessian               .... done
Dimension of the hessian                .... 71
Lowest eigenvalues of the non projected Hessian:
 -0.029986730 -0.000000000 -0.000000000 -0.000000000 -0.000000000
done
Evaluating the coordinates              ...  done
Calculating the B-matrix                .... done
Calculating the G-matrix                .... done
Diagonalizing the G-matrix              .... done
The first mode is                       ....   35
The number of degrees of freedom        ....   36

    -----------------------------------------------------------------
                    Redundant Internal Coordinates


    -----------------------------------------------------------------
         Definition                    Initial Value    d2E/dq (diagonal element)
    -----------------------------------------------------------------
      1. B(C   1,C   0)                  1.4909         0.431461   
      2. B(H   2,C   0)                  1.0891         0.361376   
      3. B(H   3,C   0)                  1.0940         0.355579   
      4. B(H   4,C   0)                  1.0937         0.355385   
      5. B(O   5,C   1)                  1.7882         0.096226   
      6. B(C   6,O   5)                  1.4236         0.494704   
      7. B(H   7,C   6)                  1.0978         0.351059   
      8. B(H   8,C   6)                  1.0963         0.351916   
      9. B(H   9,C   6)                  1.0955         0.354231   
     10. B(O  10,C   1)                  1.1901         1.166078   
     11. B(O  11,O   5)                  2.2587         0.044685   
     12. B(O  11,C   1)                  1.8073         0.085210   
     13. B(H  12,O  11)                  0.9676         0.505671   
     14. B(H  13,O  11)                  1.2195         0.059510   
     15. B(H  13,O   5)                  1.1992         0.075846   
     16. A(H   2,C   0,H   3)          109.3556         0.113936   
     17. A(C   1,C   0,H   4)          108.6940         0.239631   
     18. A(C   1,C   0,H   2)          111.5080         0.237283   
     19. A(H   3,C   0,H   4)          109.3469         0.105088   
     20. A(H   2,C   0,H   4)          110.5431         0.120663   
     21. A(C   1,C   0,H   3)          107.3176         0.251307   
     22. A(C   0,C   1,O   5)          101.9997         0.049844   
     23. A(O  10,C   1,O  11)          114.1061         0.043319   
     24. A(C   0,C   1,O  10)          130.6963         0.098595   
     25. A(O   5,C   1,O  11)           77.8304         0.014452   
     26. A(C   0,C   1,O  11)          104.3725         0.051214   
     27. A(O   5,C   1,O  10)          114.9522         0.042446   
     28. A(C   6,O   5,H  13)          118.2283         0.039052   
     29. A(C   1,O   5,H  13)           72.0528         0.031737   
     30. A(C   1,O   5,C   6)          113.2139         0.084626   
     31. A(H   8,C   6,H   9)          109.1753         0.127217   
     32. A(H   7,C   6,H   9)          108.6749         0.127193   
     33. A(O   5,C   6,H   9)          110.5024         0.246509   
     34. A(H   7,C   6,H   8)          109.2622         0.126056   
     35. A(O   5,C   6,H   8)          109.1596         0.236497   
     36. A(O   5,C   6,H   7)          110.0443         0.245618   
     37. A(H  12,O  11,H  13)          109.3412         0.043454   
     38. A(C   1,O  11,H  13)           70.9402         0.041578   
     39. A(C   1,O  11,H  12)          103.0854         0.101334   
     40. A(O   5,H  13,O  11)          138.0762         0.097790   
     41. D(O  10,C   1,C   0,H   4)    -41.9808         0.025588   
     42. D(O  11,C   1,C   0,H   4)     98.9585         0.023501   
     43. D(O  11,C   1,C   0,H   3)   -142.8872         0.023681   
     44. D(O   5,C   1,C   0,H   2)     57.1778         0.024173   
     45. D(O  10,C   1,C   0,H   3)     76.1735         0.024955   
     46. D(O  11,C   1,C   0,H   2)    -23.1499         0.023970   
     47. D(O  10,C   1,C   0,H   2)   -164.0892         0.024016   
     48. D(O   5,C   1,C   0,H   4)    179.2862         0.023635   
     49. D(O   5,C   1,C   0,H   3)    -62.5596         0.023832   
     50. D(H  13,O   5,C   1,O  10)    105.6059         0.042038   
     51. D(C   6,O   5,C   1,O  11)   -119.2313         0.032538   
     52. D(C   6,O   5,C   1,O  10)     -8.1010         0.030336   
     53. D(H  13,O   5,C   1,C   0)   -107.8676         0.039467   
     54. D(H  13,O   5,C   1,O  11)     -5.5244         0.004965   
     55. D(C   6,O   5,C   1,C   0)    138.4255         0.029855   
     56. D(H   9,C   6,O   5,H  13)     39.5175         0.037190   
     57. D(H   9,C   6,O   5,C   1)    120.8731         0.037536   
     58. D(H   8,C   6,O   5,H  13)    159.5941         0.037622   
     59. D(H   8,C   6,O   5,C   1)   -119.0503         0.037247   
     60. D(H   7,C   6,O   5,H  13)    -80.5038         0.037244   
     61. D(H   7,C   6,O   5,C   1)      0.8517         0.037461   
     62. D(H  13,O  11,C   1,O   5)      5.4677         0.004862   
     63. D(H  13,O  11,C   1,C   0)    104.9241         0.038279   
     64. D(H  12,O  11,C   1,O  10)     -0.4102         0.028419   
     65. D(H  12,O  11,C   1,O   5)    111.6943         0.032078   
     66. D(H  13,O  11,C   1,O  10)   -106.6369         0.040428   
     67. D(H  12,O  11,C   1,C   0)   -148.8492         0.028321   
     68. D(O   5,H  13,O  11,H  12)   -109.6173         0.068635   
     69. D(O   5,H  13,O  11,C   1)    -11.9978         0.017206   
     70. D(O  11,H  13,O   5,C   6)    119.2883         0.065387   
     71. D(O  11,H  13,O   5,C   1)     12.0485         0.017721   
    -----------------------------------------------------------------

Number of atoms                         .... 14
Number of degrees of freedom            .... 71

         *************************************************************
         *                GEOMETRY OPTIMIZATION CYCLE   1            *
         *************************************************************


           ************************************************************
           *        Program running with 32 parallel MPI-processes    *
           *              working on a common directory               *
           ************************************************************
------------------------------------------------------------------------------
                           ORCA GTO INTEGRAL CALCULATION
                           -- RI-GTO INTEGRALS CHOSEN --
------------------------------------------------------------------------------
------------------------------------------------------------------------------
                   ___                                                        
                  /   \      - P O W E R E D   B Y -                         
                 /     \                                                     
                 |  |  |   _    _      __       _____    __    __             
                 |  |  |  | |  | |    /  \     |  _  \  |  |  /  |          
                  \  \/   | |  | |   /    \    | | | |  |  | /  /          
                 / \  \   | |__| |  /  /\  \   | |_| |  |  |/  /          
                |  |  |   |  __  | /  /__\  \  |    /   |      \           
                |  |  |   | |  | | |   __   |  |    \   |  |\   \          
                \     /   | |  | | |  |  |  |  | |\  \  |  | \   \       
                 \___/    |_|  |_| |__|  |__|  |_| \__\ |__|  \__/        
                                                                              
                      - O R C A' S   B I G   F R I E N D -                    
                                      &                                       
                       - I N T E G R A L  F E E D E R -                       
                                                                              
 v1 FN, 2020, v2 2021                                                         
------------------------------------------------------------------------------


Reading SHARK input file inp.SHARKINP.tmp ... ok
----------------------
SHARK INTEGRAL PACKAGE
----------------------

Number of atoms                             ...     14
Number of basis functions                   ...    169
Number of shells                            ...     81
Maximum angular momentum                    ...      2
Integral batch strategy                     ... SHARK/LIBINT Hybrid
RI-J (if used) integral strategy            ... SPLIT-RIJ (Revised 2003 algorithm where possible)
Printlevel                                  ...      1
Contraction scheme used                     ... SEGMENTED contraction
Coulomb Range Separation                    ... NOT USED
Exchange Range Separation                   ... NOT USED
Finite Nucleus Model                        ... NOT USED
Auxiliary Coulomb fitting basis             ... AVAILABLE
   # of basis functions in Aux-J            ...    268
   # of shells in Aux-J                     ...    112
   Maximum angular momentum in Aux-J        ...      2
Auxiliary J/K fitting basis                 ... NOT available
Auxiliary Correlation fitting basis         ... NOT available
Auxiliary 'external' fitting basis          ... NOT available
Integral threshold                          ...     2.500000e-11
Primitive cut-off                           ...     2.500000e-12
Primitive pair pre-selection threshold      ...     2.500000e-12

Calculating pre-screening integrals         ... done (  0.0 sec) Dimension = 81
Organizing shell pair data                  ... done (  0.0 sec)
Shell pair information
Total number of shell pairs                 ...      3321
Shell pairs after pre-screening             ...      3140
Total number of primitive shell pairs       ...     11632
Primitive shell pairs kept                  ...      8139
          la=0 lb=0:    993 shell pairs
          la=1 lb=0:   1126 shell pairs
          la=1 lb=1:    339 shell pairs
          la=2 lb=0:    406 shell pairs
          la=2 lb=1:    231 shell pairs
          la=2 lb=2:     45 shell pairs

Calculating one electron integrals          ... done (  0.0 sec)
Calculating RI/J V-Matrix + Cholesky decomp.... done (  0.0 sec)
Calculating Nuclear repulsion               ... done (  0.0 sec) ENN=    265.887463461983 Eh

SHARK setup successfully completed in   0.1 seconds

Maximum memory used throughout the entire GTOINT-calculation: 10.6 MB


           ************************************************************
           *        Program running with 32 parallel MPI-processes    *
           *              working on a common directory               *
           ************************************************************
-------------------------------------------------------------------------------
                                 ORCA SCF
-------------------------------------------------------------------------------

------------
SCF SETTINGS
------------
Hamiltonian:
 Density Functional     Method          .... DFT(GTOs)
  Functional kind                       .... Exchange
  Functional name                       .... Re-regularized SCAN exchange by Furness et al
  Functional family                     .... MGGA
  Functional refs                              
    [ 0] J. W. Furness, A. D. Kaplan, J. Ning, J. P. Perdew, and J. Sun, J. Phys. Chem. Lett. 11, 8208 (2020)
    [ 1] J. W. Furness, A. D. Kaplan, J. Ning, J. P. Perdew, and J. Sun, J. Phys. Chem. Lett. 11, 9248 (2020)
  Functional external parameters         .... 8
 Parameter  0 :         c1 parameter
 Parameter  1 :         c2 parameter
 Parameter  2 :          d parameter
 Parameter  3 :         k1 parameter
 Parameter  4 :       taur parameter
 Parameter  5 :     alphar parameter
 Parameter  6 :        eta parameter
 Parameter  7 :        dp2 parameter
  Functional kind                       .... Correlation
  Functional name                       .... Re-regularized SCAN correlation by Furness et al
  Functional family                     .... MGGA
  Functional refs                              
    [ 0] J. W. Furness, A. D. Kaplan, J. Ning, J. P. Perdew, and J. Sun, J. Phys. Chem. Lett. 11, 8208 (2020)
    [ 1] J. W. Furness, A. D. Kaplan, J. Ning, J. P. Perdew, and J. Sun, J. Phys. Chem. Lett. 11, 9248 (2020)
  Functional external parameters         .... 0
 Gradients option       PostSCFGGA      .... off
   Density functional embedding theory  .... OFF
 RI-approximation to the Coulomb term is turned on
   Number of AuxJ basis functions       .... 268


General Settings:
 Integral files         IntName         .... inp
 Hartree-Fock type      HFTyp           .... RHF
 Total Charge           Charge          ....    0
 Multiplicity           Mult            ....    1
 Number of Electrons    NEL             ....   50
 Basis Dimension        Dim             ....  169
 Nuclear Repulsion      ENuc            ....    265.8874634620 Eh

Convergence Acceleration:
 DIIS                   CNVDIIS         .... on
   Start iteration      DIISMaxIt       ....    12
   Startup error        DIISStart       ....  0.200000
   # of expansion vecs  DIISMaxEq       ....     5
   Bias factor          DIISBfac        ....   1.050
   Max. coefficient     DIISMaxC        ....  10.000
 Trust-Rad. Augm. Hess. CNVTRAH         .... auto
   Auto Start mean grad. ratio tolernc. ....  1.125000
   Auto Start start iteration           ....     1
   Auto Start num. interpolation iter.  ....    10
   Max. Number of Micro iterations      ....    16
   Max. Number of Macro iterations      .... Maxiter - #DIIS iter
   Number of Davidson start vectors     ....     2
   Converg. threshold I  (grad. norm)   ....   1.000e-05
   Converg. threshold II (energy diff.) ....   1.000e-08
   Grad. Scal. Fac. for Micro threshold ....   0.100
   Minimum threshold for Micro iter.    ....   0.010
   NR start threshold (gradient norm)   ....   0.001
   Initial trust radius                 ....   0.400
   Minimum AH scaling param. (alpha)    ....   1.000
   Maximum AH scaling param. (alpha)    .... 1000.000
   Orbital update algorithm             .... Taylor
   White noise on init. David. guess    .... on
   Maximum white noise                  ....   0.010
   Quad. conv. algorithm                .... NR
   COSX micro iterations for RIJONX calc.... off
 SOSCF                  CNVSOSCF        .... on
   Start iteration      SOSCFMaxIt      ....   150
   Startup grad/error   SOSCFStart      ....  0.003300
 Level Shifting         CNVShift        .... on
   Level shift para.    LevelShift      ....    0.2500
   Turn off err/grad.   ShiftErr        ....    0.0010
 Zerner damping         CNVZerner       .... off
 Static damping         CNVDamp         .... on
   Fraction old density DampFac         ....    0.7000
   Max. Damping (<1)    DampMax         ....    0.9800
   Min. Damping (>=0)   DampMin         ....    0.0000
   Turn off err/grad.   DampErr         ....    0.1000
 Fernandez-Rico         CNVRico         .... off

SCF Procedure:
 Maximum # iterations   MaxIter         ....   125
 SCF integral mode      SCFMode         .... Direct
   Integral package                     .... SHARK and LIBINT hybrid scheme
 Reset frequency        DirectResetFreq ....    20
 Integral Threshold     Thresh          ....  2.500e-11 Eh
 Primitive CutOff       TCut            ....  2.500e-12 Eh

Convergence Tolerance:
 Convergence Check Mode ConvCheckMode   .... Total+1el-Energy
 Convergence forced     ConvForced      .... 0
 Energy Change          TolE            ....  1.000e-08 Eh
 1-El. energy change                    ....  1.000e-05 Eh
 Orbital Gradient       TolG            ....  1.000e-05
 Orbital Rotation angle TolX            ....  1.000e-05
 DIIS Error             TolErr          ....  5.000e-07


Diagonalization of the overlap matrix:
Smallest eigenvalue                        ... 3.260e-04
Time for diagonalization                   ...    0.008 sec
Threshold for overlap eigenvalues          ... 1.000e-08
Number of eigenvalues below threshold      ... 0
Time for construction of square roots      ...    0.006 sec
Total time needed                          ...    0.015 sec

---------------------
INITIAL GUESS: MOREAD
---------------------
Guess MOs are being read from file: inp.gbw
Input Geometry matches current geometry (good)
Input basis set matches current basis set (good)
MOs were renormalized
MOs were reorthogonalized (Cholesky)
                      ------------------
                      INITIAL GUESS DONE (   0.0 sec)
                      ------------------
-------------------
DFT GRID GENERATION
-------------------

General Integration Accuracy     IntAcc      ... 4.388
Radial Grid Type                 RadialGrid  ... OptM3 with GC (2021)
Angular Grid (max. ang.)         AngularGrid ... 4 (Lebedev-302)
Angular grid pruning method      GridPruning ... 4 (adaptive)
Weight generation scheme         WeightScheme... Becke
Basis function cutoff            BFCut       ... 1.0000e-11
Integration weight cutoff        WCut        ... 1.0000e-14
Angular grids for H and He will be reduced by one unit
Partially contracted basis set               ... off
Rotationally invariant grid construction     ... off

Total number of grid points                  ...    63125
Total number of batches                      ...      994
Average number of points per batch           ...       63
Average number of grid points per atom       ...     4509
Time for grid setup =    0.337 sec

--------------
SCF ITERATIONS
--------------
ITER       Energy         Delta-E        Max-DP      RMS-DP      [F,P]     Damp
               ***  Starting incremental Fock matrix formation  ***
                      *** Initiating the SOSCF procedure ***
                      *** Re-Reading the Fockian *** 
                      *** Removing any level shift *** 
ITER      Energy       Delta-E        Grad      Rot      Max-DP    RMS-DP
  0   -344.70660948 -344.7066094825  0.000001  0.000001  0.000002  0.000000
               *** Restarting incremental Fock matrix formation ***
                  ***Gradient check signals convergence***
              ***Rediagonalizing the Fockian in SOSCF/NRSCF***

               *****************************************************
               *                     SUCCESS                       *
               *           SCF CONVERGED AFTER   1 CYCLES          *
               *****************************************************


----------------
TOTAL SCF ENERGY
----------------

Total Energy       :         -344.70660948 Eh           -9379.94371 eV

Components:
Nuclear Repulsion  :          265.88746346 Eh            7235.16571 eV
Electronic Energy  :         -610.59407294 Eh          -16615.10942 eV
One Electron Energy:         -998.25611973 Eh          -27163.93001 eV
Two Electron Energy:          387.66204678 Eh           10548.82058 eV

Virial components:
Potential Energy   :         -687.93871547 Eh          -18719.76414 eV
Kinetic Energy     :          343.23210599 Eh            9339.82043 eV
Virial Ratio       :            2.00429594


DFT components:
N(Alpha)           :       24.999976060222 electrons
N(Beta)            :       24.999976060222 electrons
N(Total)           :       49.999952120443 electrons
E(X)               :      -43.201834275568 Eh       
E(C)               :       -1.625486261678 Eh       
E(XC)              :      -44.827320537246 Eh       
DFET-embed. en.    :        0.000000000000 Eh       

---------------
SCF CONVERGENCE
---------------

  Last Energy change         ...   -9.7202e-12  Tolerance :   1.0000e-08
  Last MAX-Density change    ...    5.0910e-06  Tolerance :   1.0000e-07
  Last RMS-Density change    ...    1.2548e-07  Tolerance :   5.0000e-09
  Last Orbital Gradient      ...    4.8620e-07  Tolerance :   1.0000e-05
  Last Orbital Rotation      ...    9.9921e-07  Tolerance :   1.0000e-05

             **** THE GBW FILE WAS UPDATED (inp.gbw) ****
             **** DENSITY inp.scfp WAS UPDATED ****
             **** ENERGY FILE WAS UPDATED (inp.en.tmp) ****
             **** THE GBW FILE WAS UPDATED (inp.gbw) ****
             **** DENSITY inp.scfp WAS UPDATED ****
----------------
ORBITAL ENERGIES
----------------

  NO   OCC          E(Eh)            E(eV) 
   0   2.0000     -18.967227      -516.1245 
   1   2.0000     -18.961534      -515.9696 
   2   2.0000     -18.954602      -515.7809 
   3   2.0000     -10.180110      -277.0149 
   4   2.0000     -10.075034      -274.1556 
   5   2.0000     -10.048636      -273.4373 
   6   2.0000      -1.047990       -28.5173 
   7   2.0000      -0.987245       -26.8643 
   8   2.0000      -0.943698       -25.6793 
   9   2.0000      -0.728973       -19.8364 
  10   2.0000      -0.651496       -17.7281 
  11   2.0000      -0.536048       -14.5866 
  12   2.0000      -0.493754       -13.4357 
  13   2.0000      -0.458106       -12.4657 
  14   2.0000      -0.433535       -11.7971 
  15   2.0000      -0.429926       -11.6989 
  16   2.0000      -0.404349       -11.0029 
  17   2.0000      -0.401503       -10.9255 
  18   2.0000      -0.385568       -10.4918 
  19   2.0000      -0.363589        -9.8938 
  20   2.0000      -0.332782        -9.0555 
  21   2.0000      -0.329266        -8.9598 
  22   2.0000      -0.266928        -7.2635 
  23   2.0000      -0.257808        -7.0153 
  24   2.0000      -0.248878        -6.7723 
  25   0.0000       0.004611         0.1255 
  26   0.0000       0.015336         0.4173 
  27   0.0000       0.058852         1.6014 
  28   0.0000       0.105164         2.8617 
  29   0.0000       0.112000         3.0477 
  30   0.0000       0.127379         3.4662 
  31   0.0000       0.152673         4.1545 
  32   0.0000       0.167540         4.5590 
  33   0.0000       0.171407         4.6642 
  34   0.0000       0.181278         4.9328 
  35   0.0000       0.186105         5.0642 
  36   0.0000       0.193506         5.2656 
  37   0.0000       0.199162         5.4195 
  38   0.0000       0.210086         5.7167 
  39   0.0000       0.222662         6.0589 
  40   0.0000       0.232712         6.3324 
  41   0.0000       0.245366         6.6768 
  42   0.0000       0.290718         7.9109 
  43   0.0000       0.321149         8.7389 
  44   0.0000       0.347064         9.4441 
  45   0.0000       0.355734         9.6800 
  46   0.0000       0.372557        10.1378 
  47   0.0000       0.398582        10.8460 
  48   0.0000       0.406409        11.0589 
  49   0.0000       0.426237        11.5985 
  50   0.0000       0.432452        11.7676 
  51   0.0000       0.455924        12.4063 
  52   0.0000       0.486359        13.2345 
  53   0.0000       0.494934        13.4678 
  54   0.0000       0.507707        13.8154 
  55   0.0000       0.524394        14.2695 
  56   0.0000       0.528675        14.3860 
  57   0.0000       0.588518        16.0144 
  58   0.0000       0.602550        16.3962 
  59   0.0000       0.625339        17.0163 
  60   0.0000       0.632223        17.2037 
  61   0.0000       0.668977        18.2038 
  62   0.0000       0.687451        18.7065 
  63   0.0000       0.698484        19.0067 
  64   0.0000       0.744245        20.2519 
  65   0.0000       0.745334        20.2816 
  66   0.0000       0.796764        21.6811 
  67   0.0000       0.807837        21.9824 
  68   0.0000       0.847805        23.0699 
  69   0.0000       0.903483        24.5850 
  70   0.0000       0.909013        24.7355 
  71   0.0000       0.920850        25.0576 
  72   0.0000       0.988991        26.9118 
  73   0.0000       1.010822        27.5059 
  74   0.0000       1.017269        27.6813 
  75   0.0000       1.039310        28.2811 
  76   0.0000       1.044535        28.4232 
  77   0.0000       1.076802        29.3013 
  78   0.0000       1.096920        29.8487 
  79   0.0000       1.121923        30.5291 
  80   0.0000       1.153693        31.3936 
  81   0.0000       1.164466        31.6867 
  82   0.0000       1.202688        32.7268 
  83   0.0000       1.307569        35.5808 
  84   0.0000       1.319889        35.9160 
  85   0.0000       1.333267        36.2800 
  86   0.0000       1.348457        36.6934 
  87   0.0000       1.367765        37.2188 
  88   0.0000       1.379578        37.5402 
  89   0.0000       1.394241        37.9392 
  90   0.0000       1.442980        39.2655 
  91   0.0000       1.496841        40.7311 
  92   0.0000       1.563092        42.5339 
  93   0.0000       1.585075        43.1321 
  94   0.0000       1.676017        45.6067 
  95   0.0000       1.699999        46.2593 
  96   0.0000       1.735021        47.2123 
  97   0.0000       1.762350        47.9560 
  98   0.0000       1.779064        48.4108 
  99   0.0000       1.851670        50.3865 
 100   0.0000       1.874370        51.0042 
 101   0.0000       1.884726        51.2860 
 102   0.0000       1.901127        51.7323 
 103   0.0000       1.955469        53.2110 
 104   0.0000       2.024453        55.0882 
 105   0.0000       2.061840        56.1055 
 106   0.0000       2.082336        56.6632 
 107   0.0000       2.131397        57.9983 
 108   0.0000       2.160396        58.7874 
 109   0.0000       2.210788        60.1586 
 110   0.0000       2.234180        60.7951 
 111   0.0000       2.249159        61.2027 
 112   0.0000       2.298121        62.5350 
 113   0.0000       2.315997        63.0215 
 114   0.0000       2.339478        63.6604 
 115   0.0000       2.348441        63.9043 
 116   0.0000       2.374522        64.6140 
 117   0.0000       2.376709        64.6735 
 118   0.0000       2.409933        65.5776 
 119   0.0000       2.472370        67.2766 
 120   0.0000       2.487507        67.6885 
 121   0.0000       2.549383        69.3722 
 122   0.0000       2.590461        70.4900 
 123   0.0000       2.617912        71.2370 
 124   0.0000       2.627015        71.4847 
 125   0.0000       2.690435        73.2104 
 126   0.0000       2.712285        73.8050 
 127   0.0000       2.742705        74.6328 
 128   0.0000       2.763010        75.1853 
 129   0.0000       2.781953        75.7008 
 130   0.0000       2.794768        76.0495 
 131   0.0000       2.821252        76.7702 
 132   0.0000       2.840085        77.2826 
 133   0.0000       2.842301        77.3429 
 134   0.0000       2.877806        78.3091 
 135   0.0000       2.909483        79.1711 
 136   0.0000       2.939824        79.9967 
 137   0.0000       2.952772        80.3490 
 138   0.0000       3.005665        81.7883 
 139   0.0000       3.025751        82.3349 
 140   0.0000       3.046547        82.9008 
 141   0.0000       3.080375        83.8213 
 142   0.0000       3.083138        83.8964 
 143   0.0000       3.154813        85.8468 
 144   0.0000       3.178019        86.4783 
 145   0.0000       3.215721        87.5042 
 146   0.0000       3.238814        88.1326 
 147   0.0000       3.276855        89.1678 
 148   0.0000       3.334306        90.7311 
 149   0.0000       3.353611        91.2564 
 150   0.0000       3.364461        91.5516 
 151   0.0000       3.409890        92.7878 
 152   0.0000       3.467999        94.3691 
 153   0.0000       3.522053        95.8399 
 154   0.0000       3.531675        96.1018 
 155   0.0000       3.573216        97.2322 
 156   0.0000       3.581169        97.4486 
 157   0.0000       3.648234        99.2735 
 158   0.0000       3.886784       105.7648 
 159   0.0000       4.080252       111.0293 
 160   0.0000       4.354525       118.4927 
 161   0.0000       4.459607       121.3521 
 162   0.0000       4.650950       126.5588 
 163   0.0000      21.912806       596.2778 
 164   0.0000      21.986410       598.2806 
 165   0.0000      22.348203       608.1255 
 166   0.0000      43.668544      1188.2815 
 167   0.0000      43.689872      1188.8618 
 168   0.0000      43.774682      1191.1697 
-------
TIMINGS
-------

Total SCF time: 0 days 0 hours 0 min 0 sec 

Total time                  ....       0.713 sec
Sum of individual times     ....       0.582 sec  ( 81.6%)

Fock matrix formation       ....       0.204 sec  ( 28.6%)
  Split-RI-J                ....       0.053 sec  ( 26.0% of F)
  XC integration            ....       0.143 sec  ( 69.8% of F)
    Basis function eval.    ....       0.011 sec  (  7.9% of XC)
    Density eval.           ....       0.031 sec  ( 21.7% of XC)
    XC-Functional eval.     ....       0.010 sec  (  7.3% of XC)
    XC-Potential eval.      ....       0.023 sec  ( 16.4% of XC)
Diagonalization             ....       0.008 sec  (  1.2%)
Density matrix formation    ....       0.003 sec  (  0.4%)
Population analysis         ....       0.000 sec  (  0.0%)
Initial guess               ....       0.014 sec  (  2.0%)
Orbital Transformation      ....       0.000 sec  (  0.0%)
Orbital Orthonormalization  ....       0.008 sec  (  1.2%)
DIIS solution               ....       0.006 sec  (  0.8%)
SOSCF solution              ....       0.009 sec  (  1.3%)
Grid generation             ....       0.337 sec  ( 47.3%)

Maximum memory used throughout the entire SCF-calculation: 18.7 MB


-------------------------------------------------------------------------------
                          DFT DISPERSION CORRECTION                            
                                                                               
                                 DFTD4 V2.5                                    
-------------------------------------------------------------------------------
The R2SCAN3C composite method is recognized
Using three-body term ABC
Active option DFTDOPT                   ...         5   

Starting D4
-------------------------   ----------------
Dispersion correction           -0.003081749
-------------------------   ----------------

------------------   -----------------
gCP correction             0.013424961
------------------   -----------------

-------------------------   --------------------
FINAL SINGLE POINT ENERGY      -344.696266270578
-------------------------   --------------------



           ************************************************************
           *        Program running with 32 parallel MPI-processes    *
           *              working on a common directory               *
           ************************************************************
------------------------------------------------------------------------------
                         ORCA SCF GRADIENT CALCULATION
------------------------------------------------------------------------------

Gradient of the Kohn-Sham DFT energy:
Kohn-Sham wavefunction type      ... RKS
Hartree-Fock exchange scaling    ...    0.000
Number of operators              ...    1
Number of atoms                  ...   14
Basis set dimensions             ...  169
Integral neglect threshold       ... 2.5e-11
Integral primitive cutoff        ... 2.5e-12
SHARK Integral package           ... ON

Nuc. rep. gradient       (SHARK) ... done (  0.0 sec)
HCore & Overlap gradient (SHARK) ... done (  0.0 sec)
RI-J gradient            (SHARK) ... done (  0.1 sec)
Exchange-correlation gradient    ... done
Dispersion correction            ... Starting D4
Starting D4
Starting D4
Starting D4
Starting D4
Starting D4
Starting D4
Starting D4
Starting D4
Starting D4
Starting D4
Starting D4
Starting D4
Starting D4
Starting D4
Starting D4
Starting D4
Starting D4
Starting D4
Starting D4
Starting D4
Starting D4
Starting D4
Starting D4
Starting D4
Starting D4
Starting D4
Starting D4
Starting D4
Starting D4
Starting D4
Starting D4


------------------- 
Dispersion Gradient 
------------------- 
   1  :   -0.000068519   -0.000014097    0.000005803
   2  :   -0.000027999    0.000013600   -0.000006465
   3  :   -0.000025816   -0.000005371    0.000011691
   4  :   -0.000031537   -0.000014659   -0.000003696
   5  :   -0.000030587   -0.000001369   -0.000004430
   6  :    0.000029681   -0.000006762    0.000015876
   7  :    0.000075065   -0.000029365   -0.000022406
   8  :    0.000024473   -0.000010125   -0.000010279
   9  :    0.000029469   -0.000019997   -0.000005212
  10  :    0.000030524   -0.000015280   -0.000002291
  11  :   -0.000010311    0.000032299   -0.000039538
  12  :    0.000016949    0.000045694    0.000035321
  13  :   -0.000006595    0.000018096    0.000020044
  14  :   -0.000004797    0.000007336    0.000005583

  |G| =    0.000148766

done
gCP correction                   ... done

------------------
CARTESIAN GRADIENT
------------------

   1   C   :   -0.000308108   -0.000182758    0.000017028
   2   C   :    0.000377637   -0.000629350    0.000722630
   3   H   :   -0.000134581    0.000451912    0.000298105
   4   H   :    0.000924397   -0.000523634    0.000287861
   5   H   :   -0.000386163   -0.000431742   -0.000969931
   6   O   :    0.000142904    0.001647838   -0.000933435
   7   C   :   -0.000394710   -0.000531573    0.000217652
   8   H   :   -0.000333897   -0.000439863    0.000610303
   9   H   :    0.000176846   -0.000591493   -0.000438740
  10   H   :   -0.000463166    0.000082884   -0.000547029
  11   O   :    0.000261496    0.000832952   -0.000503187
  12   O   :    0.000627544   -0.000244054    0.000657808
  13   H   :    0.000330279    0.000041899    0.000385235
  14   H   :   -0.000820477    0.000516981    0.000195700

Difference to translation invariance:
           :    0.0000000000   -0.0000000000    0.0000000000

Difference to rotation invariance:
           :   -0.0000143449   -0.0000061844   -0.0001564205

Norm of the cartesian gradient     ...    0.0036045198
RMS gradient                       ...    0.0005561895
MAX gradient                       ...    0.0016478377

-------
TIMINGS
-------

Total SCF gradient time            ...        0.567 sec

One electron gradient       ....       0.014 sec  (  2.4%)
RI-J Coulomb gradient       ....       0.083 sec  ( 14.6%)
XC gradient                 ....       0.244 sec  ( 43.1%)

Maximum memory used throughout the entire SCFGRAD-calculation: 26.5 MB
------------------------------------------------------------------------------
                         ORCA GEOMETRY RELAXATION STEP
------------------------------------------------------------------------------

Reading the OPT-File                    .... done
Getting information on internals        .... done
Copying old internal coords+grads       .... done
Making the new internal coordinates     .... (new redundants).... done
Validating the new internal coordinates .... (new redundants).... done
Calculating the B-matrix                .... done
Calculating the G,G- and P matrices     .... done
Transforming gradient to internals      .... done
Projecting the internal gradient        .... done
Number of atoms                         ....  14
Number of internal coordinates          ....  71
Current Energy                          ....  -344.696266271 Eh
Current gradient norm                   ....     0.003604520 Eh/bohr
Maximum allowed component of the step   ....  0.300
Current trust radius                    ....  0.100
Evaluating the initial hessian          ....  (read) 
(Reading Exact Hessian)...  
InHessName: inp.appr.hess	The file <inp.appr.hess> is opened as a .hess file
done
done
Diagonalizing the Hessian               .... done
Dimension of the hessian                .... 71
Lowest eigenvalues of the non projected Hessian:
 -0.029986730 -0.000000000 -0.000000000 -0.000000000 -0.000000000
done
Projecting the Hessian                  .... done
Diagonalizing the Hessian               .... done
Dimension of the hessian                ....  71
Lowest eigenvalues of the Hessian:
 -0.029986730  0.014802389  0.020994928  0.021046432  0.050733638
Hessian has   1 negative eigenvalues
Taking P-RFO step
Searching for lambda that maximizes along the lowest mode
TS mode is mode number   0 with eigenvalue  -0.02998673 and components:
   1.    0.00272545
   2.   -0.00046317
   3.   -0.00262593
   4.    0.00199823
   5.    0.42333340
   6.   -0.00769277
   7.    0.00667958
   8.    0.00012411
   9.   -0.00563418
  10.    0.00381831
  11.   -0.00507911
  12.   -0.44960163
  13.    0.00310998
  14.    0.46491254
  15.   -0.45047870
  16.    0.00186232
  17.   -0.04062734
  18.   -0.01227598
  19.   -0.00663576
  20.   -0.00128953
  21.    0.06050681
  22.   -0.04756000
  23.    0.07019842
  24.   -0.00410476
  25.    0.00601578
  26.    0.04177123
  27.   -0.06829469
  28.    0.00349909
  29.   -0.07509099
  30.   -0.02083932
  31.    0.00456086
  32.    0.00312798
  33.   -0.01462175
  34.   -0.01024547
  35.   -0.00225998
  36.    0.01934795
  37.   -0.00532980
  38.    0.09145741
  39.    0.05123902
  40.   -0.02398764
  41.   -0.16682592
  42.    0.03580551
  43.    0.03954562
  44.    0.07572805
  45.   -0.16308581
  46.    0.07288992
  47.   -0.12974151
  48.    0.03864364
  49.    0.04238376
  50.    0.05621537
  51.   -0.01010661
  52.    0.07341060
  53.   -0.07993406
  54.   -0.02730184
  55.   -0.06273883
  56.    0.06618225
  57.   -0.03177851
  58.    0.06134014
  59.   -0.03662062
  60.    0.05917855
  61.   -0.03878221
  62.   -0.01667070
  63.   -0.07247795
  64.    0.05171773
  65.   -0.02438674
  66.    0.05943378
  67.   -0.08019399
  68.   -0.11268340
  69.   -0.02645498
  70.   -0.07551889
  71.   -0.01633106

Lambda that maximizes along the TS mode:       0.00004108
Searching for lambda that minimizes along all other modes
In cycle   1: lambdaN =  -0.00036552   step =   0.00036552
In cycle   2: lambdaN =  -0.00036563   step =   0.00000011
In cycle   3: lambdaN =  -0.00036563   step =   0.00000000
Lambda that minimizes along all other modes:  -0.00036563
Calculated stepsize too large (   0.1272 >    0.1000). Scaled with    0.7862.
The final length of the internal step   ....       0.1000
Converting the step to cartesian space:
 Initial RMS(Int)=    0.0118678166
Transforming coordinates:
 Iter   0:  RMS(Cart)=    0.0236215416 RMS(Int)=    0.0118783390
 Iter   1:  RMS(Cart)=    0.0003255295 RMS(Int)=    0.0002105144
 Iter   2:  RMS(Cart)=    0.0000090729 RMS(Int)=    0.0000057758
 Iter   3:  RMS(Cart)=    0.0000002797 RMS(Int)=    0.0000001984
 Iter   4:  RMS(Cart)=    0.0000000085 RMS(Int)=    0.0000000058
done
Storing new coordinates                 .... done

                                .--------------------.
          ----------------------|Geometry convergence|-------------------------
          Item                value                   Tolerance       Converged
          ---------------------------------------------------------------------
          RMS gradient        0.0005280426            0.0001000000      NO
          MAX gradient        0.0014789089            0.0003000000      NO
          RMS step            0.0118678166            0.0020000000      NO
          MAX step            0.0338136795            0.0040000000      NO
          ........................................................
          Max(Bonds)      0.0062      Max(Angles)    0.63
          Max(Dihed)        1.94      Max(Improp)    0.00
          ---------------------------------------------------------------------

The optimization has not yet converged - more geometry cycles are needed


    ---------------------------------------------------------------------------
                         Redundant Internal Coordinates
                            (Angstroem and degrees)

        Definition                    Value    dE/dq     Step     New-Value  comp.(TS mode)
    ----------------------------------------------------------------------------
     1. B(C   1,C   0)                1.4909  0.000167 -0.0002    1.4908   
     2. B(H   2,C   0)                1.0891  0.000247 -0.0003    1.0888   
     3. B(H   3,C   0)                1.0940  0.000370 -0.0003    1.0936   
     4. B(H   4,C   0)                1.0937  0.000410 -0.0005    1.0931   
     5. B(O   5,C   1)                1.7882 -0.001380 -0.0035    1.7847          0.42
     6. B(C   6,O   5)                1.4236 -0.000528  0.0005    1.4242   
     7. B(H   7,C   6)                1.0978 -0.000699  0.0008    1.0986   
     8. B(H   8,C   6)                1.0963  0.000686 -0.0008    1.0955   
     9. B(H   9,C   6)                1.0955 -0.000603  0.0007    1.0962   
    10. B(O  10,C   1)                1.1901  0.000876 -0.0004    1.1898   
    11. B(O  11,O   5)                2.2587  0.000076  0.0006    2.2593   
    12. B(O  11,C   1)                1.8073  0.000834  0.0054    1.8128          0.45
    13. B(H  12,O  11)                0.9676  0.000041 -0.0001    0.9675   
    14. B(H  13,O  11)                1.2195 -0.000575 -0.0062    1.2133          0.46
    15. B(H  13,O   5)                1.1992  0.000415  0.0062    1.2054          0.45
    16. A(H   2,C   0,H   3)          109.36  0.000273    0.00    109.36   
    17. A(C   1,C   0,H   4)          108.69  0.000483   -0.05    108.64   
    18. A(C   1,C   0,H   2)          111.51 -0.000078    0.01    111.52   
    19. A(H   3,C   0,H   4)          109.35  0.000159    0.00    109.35   
    20. A(H   2,C   0,H   4)          110.54  0.000121   -0.08    110.47   
    21. A(C   1,C   0,H   3)          107.32 -0.000983    0.12    107.43   
    22. A(C   0,C   1,O   5)          102.00 -0.000626    0.53    102.53   
    23. A(O  10,C   1,O  11)          114.11  0.000034   -0.12    113.99   
    24. A(C   0,C   1,O  10)          130.70  0.000049    0.00    130.70   
    25. A(O   5,C   1,O  11)           77.83  0.000154   -0.02     77.81   
    26. A(C   0,C   1,O  11)          104.37  0.000316   -0.56    103.81   
    27. A(O   5,C   1,O  10)          114.95  0.000085    0.19    115.14   
    28. A(C   6,O   5,H  13)          118.23  0.000789   -0.63    117.60   
    29. A(C   1,O   5,H  13)           72.05  0.000090    0.08     72.14   
    30. A(C   1,O   5,C   6)          113.21 -0.000559    0.27    113.48   
    31. A(H   8,C   6,H   9)          109.18 -0.000024   -0.05    109.12   
    32. A(H   7,C   6,H   9)          108.67  0.000046    0.01    108.68   
    33. A(O   5,C   6,H   9)          110.50  0.000376   -0.07    110.43   
    34. A(H   7,C   6,H   8)          109.26 -0.000106    0.06    109.32   
    35. A(O   5,C   6,H   8)          109.16  0.000484   -0.07    109.09   
    36. A(O   5,C   6,H   7)          110.04 -0.000779    0.13    110.17   
    37. A(H  12,O  11,H  13)          109.34  0.000179    0.06    109.40   
    38. A(C   1,O  11,H  13)           70.94 -0.000548   -0.05     70.89   
    39. A(C   1,O  11,H  12)          103.09  0.000382   -0.12    102.96   
    40. A(O   5,H  13,O  11)          138.08  0.000277    0.08    138.16   
    41. D(O  10,C   1,C   0,H   4)    -41.98  0.000220   -0.76    -42.74   
    42. D(O  11,C   1,C   0,H   4)     98.96  0.000890   -1.93     97.02   
    43. D(O  11,C   1,C   0,H   3)   -142.89  0.000796   -1.90   -144.78   
    44. D(O   5,C   1,C   0,H   2)     57.18  0.000538   -1.81     55.36   
    45. D(O  10,C   1,C   0,H   3)     76.17  0.000126   -0.72     75.45   
    46. D(O  11,C   1,C   0,H   2)    -23.15  0.000462   -1.81    -24.96   
    47. D(O  10,C   1,C   0,H   2)   -164.09 -0.000208   -0.64   -164.72   
    48. D(O   5,C   1,C   0,H   4)    179.29  0.000966   -1.94    177.35   
    49. D(O   5,C   1,C   0,H   3)    -62.56  0.000871   -1.90    -64.46   
    50. D(H  13,O   5,C   1,O  10)    105.61  0.000072    0.11    105.72   
    51. D(C   6,O   5,C   1,O  11)   -119.23 -0.001016    0.97   -118.26   
    52. D(C   6,O   5,C   1,O  10)     -8.10 -0.000918    0.82     -7.28   
    53. D(H  13,O   5,C   1,C   0)   -107.87 -0.000489    0.94   -106.92   
    54. D(H  13,O   5,C   1,O  11)     -5.52 -0.000025    0.26     -5.26   
    55. D(C   6,O   5,C   1,C   0)    138.43 -0.001479    1.65    140.08   
    56. D(H   9,C   6,O   5,H  13)     39.52 -0.000432    0.31     39.82   
    57. D(H   9,C   6,O   5,C   1)    120.87 -0.000315    0.31    121.18   
    58. D(H   8,C   6,O   5,H  13)    159.59  0.000077    0.15    159.75   
    59. D(H   8,C   6,O   5,C   1)   -119.05  0.000194    0.16   -118.89   
    60. D(H   7,C   6,O   5,H  13)    -80.50 -0.000228    0.26    -80.25   
    61. D(H   7,C   6,O   5,C   1)      0.85 -0.000111    0.26      1.11   
    62. D(H  13,O  11,C   1,O   5)      5.47  0.000087   -0.20      5.27   
    63. D(H  13,O  11,C   1,C   0)    104.92 -0.000589    0.45    105.37   
    64. D(H  12,O  11,C   1,O  10)     -0.41 -0.000063   -0.32     -0.73   
    65. D(H  12,O  11,C   1,O   5)    111.69  0.000090   -0.11    111.58   
    66. D(H  13,O  11,C   1,O  10)   -106.64 -0.000066   -0.41   -107.04   
    67. D(H  12,O  11,C   1,C   0)   -148.85 -0.000587    0.54   -148.31   
    68. D(O   5,H  13,O  11,H  12)   -109.62 -0.000339    0.68   -108.94   
    69. D(O   5,H  13,O  11,C   1)    -12.00 -0.000141    0.51    -11.48   
[...]
      9      -0.013318   0.049967  -0.547796   0.204800  -0.366731   0.117762
     10       0.007439   0.023010   0.002365  -0.196226   0.246405   0.223465
     11      -0.005286  -0.025071   0.239670   0.240695  -0.247665  -0.420151
     12       0.002483  -0.016479  -0.346904   0.099496  -0.124787  -0.149652
     13      -0.004655  -0.018718  -0.474485   0.177150  -0.254843  -0.132918
     14      -0.008406  -0.026307   0.105664   0.166391  -0.497210   0.438818
     15       0.027607  -0.004494   0.000343  -0.019946  -0.010378  -0.002390
     16      -0.022551   0.073059   0.001250   0.006588  -0.000245   0.001584
     17       0.067302   0.024016  -0.000962   0.007937   0.000887   0.001166
     18      -0.066801  -0.014982  -0.000604  -0.074767  -0.040536  -0.016971
     19       0.037821  -0.133699  -0.002569  -0.005059  -0.001851  -0.005999
     20      -0.124942  -0.030436   0.001590   0.018672   0.011038   0.000575
     21       0.487743  -0.345662   0.016357   0.548681   0.296798   0.144308
     22      -0.003592   0.233580  -0.000655  -0.075276  -0.039010   0.009202
     23      -0.041767   0.418388   0.006394   0.052386   0.030439   0.057732
     24       0.337180   0.518304  -0.000183   0.286968   0.148089   0.023613
     25      -0.185139   0.099245   0.003039  -0.019175  -0.012040  -0.018491
     26       0.107361  -0.427198  -0.005485  -0.020393  -0.004448   0.016096
     27      -0.547023  -0.028304   0.017482   0.306534   0.166966   0.077372
     28       0.018663   0.323974   0.016671   0.166332   0.089925   0.085771
     29       0.517663   0.083945  -0.017213  -0.429139  -0.233266  -0.099242
     30      -0.001387   0.001194  -0.001514  -0.000498  -0.005746  -0.002363
     31       0.009450   0.006097  -0.004672   0.000235  -0.004369   0.003443
     32      -0.015525  -0.000035   0.014513   0.003344   0.009186   0.003306
     33      -0.005370  -0.010025   0.001405   0.002430  -0.001204  -0.000156
     34       0.003400  -0.001483   0.001306   0.002461   0.003742   0.001410
     35       0.004239   0.002746  -0.000776  -0.000565  -0.001256  -0.002242
     36       0.029383   0.106747   0.000352  -0.027730  -0.009750  -0.007442
     37      -0.017899  -0.053910   0.007325   0.015453   0.009236   0.005397
     38      -0.001165   0.018708   0.008327  -0.004112   0.001263   0.001179
     39       0.046707   0.147377  -0.010245  -0.010366   0.020948  -0.003657
     40      -0.019423  -0.034185  -0.009375  -0.087225  -0.041366  -0.042161
     41      -0.019862  -0.083076   0.004232   0.056846   0.064532   0.028936
                 30         31         32         33         34         35    
      0      -0.001458  -0.001369   0.004596  -0.013346  -0.032933  -0.000263
      1       0.000590  -0.000898   0.001963  -0.007201  -0.022109   0.000478
      2       0.000629   0.000116   0.001398   0.007413   0.030595  -0.000239
      3      -0.004520   0.012167  -0.031996   0.067427   0.139707   0.001404
      4       0.007523  -0.006189  -0.008325   0.047780   0.167563  -0.001859
      5       0.001189   0.000444  -0.013862  -0.070519  -0.371964   0.001967
      6       0.021505  -0.009838   0.003748  -0.005123  -0.120414   0.000825
      7      -0.038731   0.028417  -0.000525  -0.005582  -0.057249  -0.000716
      8      -0.011055   0.008118   0.000441   0.006778   0.018365   0.003139
      9      -0.004516   0.005782   0.017673  -0.008229   0.043368  -0.000108
     10      -0.017394   0.012698   0.005793  -0.000429  -0.018693  -0.001437
     11       0.027984  -0.022606  -0.007834  -0.006992  -0.010227  -0.001075
     12       0.021855  -0.017719   0.015751  -0.008859   0.015666   0.000071
     13       0.021205  -0.015895   0.012810  -0.003036   0.044017  -0.001342
     14      -0.033158   0.022984  -0.009658  -0.007900   0.007144   0.000258
     15       0.008303  -0.007389   0.025620   0.010406  -0.024294  -0.003127
     16      -0.012414  -0.004687   0.015449   0.032378  -0.018878   0.001169
     17      -0.005309   0.017538  -0.013438   0.020211  -0.003951   0.001812
     18       0.023070  -0.005638  -0.000735   0.000334   0.008921  -0.033020
     19      -0.054861  -0.000323  -0.017456  -0.008568   0.007995  -0.008402
     20      -0.019674   0.062362   0.001460  -0.009215  -0.007780   0.029547
     21       0.280227   0.090526  -0.078417  -0.030866  -0.044388   0.087731
     22       0.062782  -0.410688  -0.083950  -0.003846   0.032352   0.573965
     23       0.178324  -0.537526  -0.118509  -0.002838  -0.016621  -0.391970
     24      -0.610518   0.044822   0.087243   0.053526  -0.059441  -0.057528
     25       0.091494   0.412389   0.084222  -0.001275  -0.011449  -0.405192
     26      -0.064883  -0.518249  -0.167576  -0.034588   0.017700  -0.294295
     27      -0.017274  -0.065150  -0.080130  -0.023078  -0.048332   0.395420
     28       0.669549   0.097834  -0.012669  -0.018516  -0.002924  -0.068500
     29       0.187642   0.133580   0.097739   0.013592   0.067428   0.302856
     30       0.000312  -0.001751   0.003281  -0.019793  -0.067351   0.000358
     31      -0.001486   0.002527   0.000320  -0.026266  -0.098360   0.000392
     32       0.000501  -0.001076   0.004006   0.063643   0.242649  -0.001041
     33       0.003936  -0.008106   0.026785   0.029084  -0.027597  -0.000280
     34      -0.001601  -0.000558   0.012650  -0.013650  -0.004608   0.000559
     35      -0.002022   0.005604  -0.019315   0.001696   0.001555   0.000188
     36      -0.023002   0.060461  -0.239913  -0.103256   0.024764  -0.000500
     37       0.012480  -0.033490   0.146538   0.028401  -0.093288   0.001306
     38      -0.000534   0.007060  -0.014816  -0.019227  -0.109728  -0.000314
     39      -0.071166   0.103374  -0.274553  -0.835142   0.702802   0.002344
     40       0.001678   0.040168  -0.319484  -0.257510   0.212714  -0.015167
     41       0.036852  -0.193366   0.807613  -0.444907   0.372986  -0.006479
                 36         37         38         39         40         41    
      0       0.045579   0.000053   0.000084  -0.034814  -0.028244  -0.000129
      1       0.020791  -0.000099  -0.000683   0.081929   0.016697  -0.000203
      2       0.001270   0.000212   0.000046   0.026656  -0.087145  -0.000238
      3      -0.000773   0.000348   0.000446  -0.000808  -0.001221   0.000300
      4      -0.000441   0.000145   0.000062   0.002104   0.000195   0.000730
      5       0.000727  -0.000546  -0.000736   0.000686  -0.002320   0.001284
      6       0.041221  -0.000049  -0.000449  -0.009736   0.073407  -0.000497
      7      -0.100369   0.000613   0.000712   0.024790  -0.219740  -0.001108
      8       0.411672  -0.002697  -0.003368  -0.033923   0.874842   0.001112
      9      -0.096685  -0.000020   0.001349  -0.116781   0.037421  -0.000863
     10      -0.538296   0.000345   0.005304  -0.571832   0.228196  -0.000581
     11      -0.357103   0.000261   0.003502  -0.384906   0.137621   0.000598
     12      -0.473476  -0.000878  -0.000935   0.544564   0.241109   0.000258
     13       0.398932   0.000490   0.001033  -0.441030  -0.202203  -0.000106
     14      -0.079088  -0.000040  -0.000252   0.098009   0.028979   0.000049
     15      -0.000127  -0.000351   0.000384   0.000352   0.000086   0.000081
     16       0.000015  -0.000283   0.000385  -0.000385  -0.000059  -0.000736
     17      -0.000109   0.000061   0.000349   0.000059   0.000329  -0.000282
     18      -0.000159  -0.019528  -0.052612  -0.000114  -0.000010  -0.000121
     19      -0.000100   0.085495  -0.037860  -0.000108   0.000130   0.000093
     20      -0.000308  -0.031563  -0.069319  -0.000528  -0.000337   0.000175
     21      -0.000216  -0.088033  -0.014334  -0.000547  -0.000958  -0.000081
     22      -0.001669  -0.572519  -0.015182  -0.001610  -0.003275   0.000061
     23       0.001017   0.394453  -0.012216   0.001214   0.002219  -0.000080
     24       0.000527  -0.067674   0.075855   0.000736   0.000048  -0.000014
     25       0.003096  -0.394001   0.563997   0.003596   0.001212  -0.000616
     26       0.002114  -0.313167   0.403400   0.002542   0.000730  -0.000531
     27       0.002367   0.389983   0.557595   0.002538   0.000719   0.000499
     28      -0.000411  -0.044904  -0.103606  -0.000480  -0.000207  -0.000082
     29       0.001299   0.296925   0.426715   0.002163   0.000853   0.000069
     30      -0.000139  -0.000304  -0.000001   0.000095  -0.000254   0.000023
     31      -0.000112  -0.000084  -0.000114  -0.000219  -0.000355   0.000099
     32       0.000169   0.000320   0.000448  -0.000100   0.000917  -0.000560
     33      -0.000126  -0.000034   0.000068  -0.000047   0.000046   0.025372
     34      -0.000088  -0.000110   0.000034  -0.000462  -0.000122   0.049113
     35      -0.000106  -0.000036   0.000017  -0.000318   0.000415  -0.028984
     36       0.000626   0.001128  -0.000876   0.000296  -0.000327  -0.415823
     37       0.000428  -0.000206  -0.000120  -0.000210   0.000912  -0.782066
     38       0.000497  -0.000574  -0.000158   0.000090  -0.001232   0.459741
     39      -0.000144   0.004401  -0.004776  -0.001614   0.001747   0.011556
     40      -0.000050  -0.001518   0.001537   0.003656   0.000794   0.007697
     41       0.000190  -0.000578   0.003661   0.001004  -0.000316  -0.002094


-----------
IR SPECTRUM
-----------

 Mode   freq       eps      Int      T**2         TX        TY        TZ
       cm**-1   L/(mol*cm) km/mol    a.u.
----------------------------------------------------------------------------
  7:     11.27   0.000109    0.55  0.003016  ( 0.045227 -0.019857  0.024011)
  8:    133.95   0.000155    0.79  0.000362  ( 0.002050 -0.018792 -0.002170)
  9:    199.71   0.000165    0.83  0.000258  ( 0.007012 -0.014135 -0.002984)
 10:    228.46   0.000117    0.59  0.000159  ( 0.001418  0.007593 -0.009979)
 11:    286.55   0.000053    0.27  0.000058  ( 0.003924 -0.000828 -0.006474)
 12:    338.99   0.007565   38.23  0.006965  ( 0.058792 -0.007300  0.058777)
 13:    379.06   0.009081   45.89  0.007476  (-0.001718  0.059984  0.062249)
 14:    432.10   0.031248  157.91  0.022567  ( 0.109584 -0.100381  0.021956)
 15:    523.56   0.030108  152.15  0.017946  ( 0.085893  0.048612  0.090580)
 16:    603.75   0.004189   21.17  0.002165  ( 0.043229 -0.003640  0.016835)
 17:    649.22   0.011100   56.09  0.005335  ( 0.019717 -0.041632 -0.056686)
 18:    722.04   0.134894  681.70  0.058301  (-0.098709  0.208670  0.070808)
 19:    860.55   0.015149   76.56  0.005493  (-0.060160  0.012864 -0.041338)
 20:    986.69   0.014158   71.55  0.004478  ( 0.060845 -0.001080  0.027831)
 21:   1037.99   0.033524  169.41  0.010079  ( 0.086046 -0.048017 -0.019209)
 22:   1086.15   0.043998  222.35  0.012641  ( 0.007855 -0.098749 -0.053180)
 23:   1099.94   0.011636   58.80  0.003301  ( 0.040443 -0.032863  0.024199)
 24:   1173.00   0.001951    9.86  0.000519  ( 0.017252 -0.013914 -0.005282)
 25:   1187.92   0.012156   61.43  0.003193  ( 0.031553 -0.043258 -0.018071)
 26:   1389.18   0.003853   19.47  0.000866  (-0.026871 -0.011979 -0.000154)
 27:   1455.04   0.000671    3.39  0.000144  ( 0.008688 -0.008266  0.000446)
 28:   1460.32   0.002201   11.12  0.000470  ( 0.010216  0.003605 -0.018787)
 29:   1466.66   0.000215    1.09  0.000046  ( 0.001266  0.006558  0.001057)
 30:   1479.94   0.002155   10.89  0.000454  ( 0.000062  0.020963  0.003874)
 31:   1496.93   0.002584   13.06  0.000539  (-0.000037  0.000336 -0.023209)
 32:   1530.36   0.008987   45.41  0.001833  (-0.028110  0.000481  0.032282)
 33:   1804.25   0.031139  157.36  0.005386  (-0.023110  0.001636 -0.069635)
 34:   1896.57   0.039477  199.50  0.006496  ( 0.005767  0.027259 -0.075626)
 35:   2993.36   0.008645   43.69  0.000901  (-0.027425  0.004368  0.011403)
 36:   3043.86   0.000413    2.09  0.000042  ( 0.005725  0.001813  0.002515)
 37:   3077.51   0.003122   15.78  0.000317  (-0.003812  0.017053 -0.003356)
 38:   3095.51   0.003166   16.00  0.000319  (-0.008486 -0.008024 -0.013519)
 39:   3131.48   0.000415    2.10  0.000041  (-0.003057  0.005315  0.001950)
 40:   3171.42   0.000265    1.34  0.000026  ( 0.000958  0.001656 -0.004736)
 41:   3805.42   0.010389   52.50  0.000852  (-0.007257 -0.028254  0.001011)

* The epsilon (eps) is given for a Dirac delta lineshape.
** The dipole moment derivative (T) already includes vibrational overlap.

The first frequency considered to be a vibration is 7
The total number of vibrations considered is 35


--------------------------
THERMOCHEMISTRY AT 298.15K
--------------------------

Temperature         ... 298.15 K
Pressure            ... 1.00 atm
Total Mass          ... 92.09 AMU

Throughout the following assumptions are being made:
  (1) The electronic state is orbitally nondegenerate
  (2) There are no thermally accessible electronically excited states
  (3) Hindered rotations indicated by low frequency modes are not
      treated as such but are treated as vibrations and this may
      cause some error
  (4) All equations used are the standard statistical mechanics
      equations for an ideal gas
  (5) All vibrations are strictly harmonic

freq.      11.27  E(vib)   ...       0.58 
freq.     133.95  E(vib)   ...       0.42 
freq.     199.71  E(vib)   ...       0.35 
freq.     228.46  E(vib)   ...       0.32 
freq.     286.55  E(vib)   ...       0.27 
freq.     338.99  E(vib)   ...       0.23 
freq.     379.06  E(vib)   ...       0.21 
freq.     432.10  E(vib)   ...       0.18 
freq.     523.56  E(vib)   ...       0.13 
freq.     603.75  E(vib)   ...       0.10 
freq.     649.22  E(vib)   ...       0.08 
freq.     722.04  E(vib)   ...       0.07 
freq.     860.55  E(vib)   ...       0.04 
freq.     986.69  E(vib)   ...       0.02 
freq.    1037.99  E(vib)   ...       0.02 
freq.    1086.15  E(vib)   ...       0.02 
freq.    1099.94  E(vib)   ...       0.02 
freq.    1173.00  E(vib)   ...       0.01 
freq.    1187.92  E(vib)   ...       0.01 
freq.    1389.18  E(vib)   ...       0.00 
freq.    1455.04  E(vib)   ...       0.00 
freq.    1460.32  E(vib)   ...       0.00 
freq.    1466.66  E(vib)   ...       0.00 
freq.    1479.94  E(vib)   ...       0.00 
freq.    1496.93  E(vib)   ...       0.00 
freq.    1530.36  E(vib)   ...       0.00 
freq.    1804.25  E(vib)   ...       0.00 
freq.    1896.57  E(vib)   ...       0.00 
freq.    2993.36  E(vib)   ...       0.00 
freq.    3043.86  E(vib)   ...       0.00 
freq.    3077.51  E(vib)   ...       0.00 
freq.    3095.51  E(vib)   ...       0.00 
freq.    3131.48  E(vib)   ...       0.00 
freq.    3171.42  E(vib)   ...       0.00 
freq.    3805.42  E(vib)   ...       0.00 

------------
INNER ENERGY
------------

The inner energy is: U= E(el) + E(ZPE) + E(vib) + E(rot) + E(trans)
    E(el)   - is the total energy from the electronic structure calculation
              = E(kin-el) + E(nuc-el) + E(el-el) + E(nuc-nuc)
    E(ZPE)  - the the zero temperature vibrational energy from the frequency calculation
    E(vib)  - the the finite temperature correction to E(ZPE) due to population
              of excited vibrational states
    E(rot)  - is the rotational thermal energy
    E(trans)- is the translational thermal energy

Summary of contributions to the inner energy U:
Electronic energy                ...   -344.69746840 Eh
Zero point energy                ...      0.10989585 Eh      68.96 kcal/mol
Thermal vibrational correction   ...      0.00495681 Eh       3.11 kcal/mol
Thermal rotational correction    ...      0.00141627 Eh       0.89 kcal/mol
Thermal translational correction ...      0.00141627 Eh       0.89 kcal/mol
-----------------------------------------------------------------------
Total thermal energy                   -344.57978319 Eh


Summary of corrections to the electronic energy:
(perhaps to be used in another calculation)
Total thermal correction                  0.00778936 Eh       4.89 kcal/mol
Non-thermal (ZPE) correction              0.10989585 Eh      68.96 kcal/mol
-----------------------------------------------------------------------
Total correction                          0.11768520 Eh      73.85 kcal/mol


--------
ENTHALPY
--------

The enthalpy is H = U + kB*T
                kB is Boltzmann's constant
Total free energy                 ...   -344.57978319 Eh 
Thermal Enthalpy correction       ...      0.00094421 Eh       0.59 kcal/mol
-----------------------------------------------------------------------
Total Enthalpy                    ...   -344.57883899 Eh


Note: Only C1 symmetry has been detected, increase convergence thresholds 
      if your molecule has a higher symmetry. Symmetry factor of 1.0 is   
      used for the rotational entropy correction. 
 

Note: Rotational entropy computed according to Herzberg 
Infrared and Raman Spectra, Chapter V,1, Van Nostrand Reinhold, 1945 
Point Group:  C1, Symmetry Number:   1  
Rotational constants in cm-1:     0.146863     0.090312     0.084661 

Vibrational entropy computed according to the QRRHO of S. Grimme
Chem.Eur.J. 2012 18 9955


-------
ENTROPY
-------

The entropy contributions are T*S = T*(S(el)+S(vib)+S(rot)+S(trans))
     S(el)   - electronic entropy
     S(vib)  - vibrational entropy
     S(rot)  - rotational entropy
     S(trans)- translational entropy
The entropies will be listed as multiplied by the temperature to get
units of energy

Electronic entropy                ...      0.00000000 Eh      0.00 kcal/mol
Vibrational entropy               ...      0.00895629 Eh      5.62 kcal/mol
Rotational entropy                ...      0.01271717 Eh      7.98 kcal/mol
Translational entropy             ...      0.01875460 Eh     11.77 kcal/mol
-----------------------------------------------------------------------
Final entropy term                ...      0.04042806 Eh     25.37 kcal/mol

In case the symmetry of your molecule has not been determined correctly
or in case you have a reason to use a different symmetry number we print 
out the resulting rotational entropy values for sn=1,12 :
 --------------------------------------------------------
|  sn= 1 | S(rot)=       0.01271717 Eh      7.98 kcal/mol|
|  sn= 2 | S(rot)=       0.01206272 Eh      7.57 kcal/mol|
|  sn= 3 | S(rot)=       0.01167989 Eh      7.33 kcal/mol|
|  sn= 4 | S(rot)=       0.01140826 Eh      7.16 kcal/mol|
|  sn= 5 | S(rot)=       0.01119757 Eh      7.03 kcal/mol|
|  sn= 6 | S(rot)=       0.01102543 Eh      6.92 kcal/mol|
|  sn= 7 | S(rot)=       0.01087988 Eh      6.83 kcal/mol|
|  sn= 8 | S(rot)=       0.01075381 Eh      6.75 kcal/mol|
|  sn= 9 | S(rot)=       0.01064260 Eh      6.68 kcal/mol|
|  sn=10 | S(rot)=       0.01054312 Eh      6.62 kcal/mol|
|  sn=11 | S(rot)=       0.01045313 Eh      6.56 kcal/mol|
|  sn=12 | S(rot)=       0.01037097 Eh      6.51 kcal/mol|
 --------------------------------------------------------


-------------------
GIBBS FREE ENERGY
-------------------

The Gibbs free energy is G = H - T*S

Total enthalpy                    ...   -344.57883899 Eh 
Total entropy correction          ...     -0.04042806 Eh    -25.37 kcal/mol
-----------------------------------------------------------------------
Final Gibbs free energy         ...   -344.61926705 Eh

For completeness - the Gibbs free energy minus the electronic energy
G-E(el)                           ...      0.07820135 Eh     49.07 kcal/mol


Timings for individual modules:

Sum of individual times         ...     1589.400 sec (=  26.490 min)
GTO integral calculation        ...       10.912 sec (=   0.182 min)   0.7 %
SCF iterations                  ...       51.924 sec (=   0.865 min)   3.3 %
SCF Gradient evaluation         ...       21.258 sec (=   0.354 min)   1.3 %
Geometry relaxation             ...        0.617 sec (=   0.010 min)   0.0 %
Analytical frequency calculation...       23.239 sec (=   0.387 min)   1.5 %
NEB Iterations                  ...     1481.450 sec (=  24.691 min)  93.2 %
                             ****ORCA TERMINATED NORMALLY****
TOTAL RUN TIME: 0 days 0 hours 26 minutes 28 seconds 767 msec
